<?xml version="1.0" encoding="UTF-8"?>

<!-- generated on 2026-06-28T01:19:50.032642+00:00 by Eclipse SUMO sumo 1.27.1
<sumoConfiguration xmlns:xsi="http://www.w3.org/2001/XMLSchema-instance" xsi:noNamespaceSchemaLocation="http://sumo.dlr.de/xsd/sumoConfiguration.xsd">

    <input>
        <net-file value="osm.net.xml"/>
        <route-files value="routes_fluide.rou.xml"/>
    </input>

    <output>
        <tripinfo-output value="baseline_tripinfo_fluide.xml"/>
        <statistic-output value="baseline_stats_fluide.xml"/>
    </output>

    <time>
        <begin value="0"/>
        <end value="3600"/>
    </time>

    <processing>
        <ignore-route-errors value="true"/>
    </processing>

    <report>
        <no-warnings value="true"/>
        <duration-log.statistics value="true"/>
        <no-step-log value="true"/>
    </report>

</sumoConfiguration>
-->

<tripinfos xmlns:xsi="http://www.w3.org/2001/XMLSchema-instance" xsi:noNamespaceSchemaLocation="http://sumo.dlr.de/xsd/tripinfo_file.xsd">
    <tripinfo id="1" depart="3.00" departLane="1161228580_0" departPos="5.10" departSpeed="13.03" departDelay="0.50" arrival="18.00" arrivalLane="-1161228580_0" arrivalPos="58.50" arrivalSpeed="11.78" duration="15.00" routeLength="116.57" waitingTime="0.00" waitingCount="0" stopTime="0.00" timeLoss="4.03" rerouteNo="0" devices="tripinfo_1" vType="DEFAULT_VEHTYPE" speedFactor="0.94" vaporized=""/>
    <tripinfo id="0" depart="0.00" departLane="30619424#1_0" departPos="5.10" departSpeed="13.89" departDelay="0.00" arrival="41.00" arrivalLane="-1137542845_0" arrivalPos="0.55" arrivalSpeed="7.48" duration="41.00" routeLength="584.07" waitingTime="0.00" waitingCount="0" stopTime="0.00" timeLoss="14.69" rerouteNo="0" devices="tripinfo_0" vType="DEFAULT_VEHTYPE" speedFactor="1.06" vaporized=""/>
    <tripinfo id="6" depart="15.00" departLane="755952845#1_0" departPos="5.10" departSpeed="13.89" departDelay="0.00" arrival="42.00" arrivalLane="-329167779#0_0" arrivalPos="130.12" arrivalSpeed="13.74" duration="27.00" routeLength="328.05" waitingTime="0.00" waitingCount="0" stopTime="0.00" timeLoss="3.44" rerouteNo="0" devices="tripinfo_6" vType="DEFAULT_VEHTYPE" speedFactor="1.05" vaporized=""/>
    <tripinfo id="10" depart="25.00" departLane="397562860#0_0" departPos="5.10" departSpeed="13.89" departDelay="0.00" arrival="47.00" arrivalLane="1524206042_0" arrivalPos="105.82" arrivalSpeed="14.51" duration="22.00" routeLength="252.04" waitingTime="0.00" waitingCount="0" stopTime="0.00" timeLoss="4.08" rerouteNo="0" devices="tripinfo_10" vType="DEFAULT_VEHTYPE" speedFactor="1.09" vaporized=""/>
    <tripinfo id="7" depart="18.00" departLane="-30619422#1_0" departPos="5.10" departSpeed="12.31" departDelay="0.50" arrival="58.00" arrivalLane="-30619422#0_0" arrivalPos="226.17" arrivalSpeed="12.29" duration="40.00" routeLength="463.02" waitingTime="0.00" waitingCount="0" stopTime="0.00" timeLoss="1.83" rerouteNo="0" devices="tripinfo_7" vType="DEFAULT_VEHTYPE" speedFactor="0.89" vaporized=""/>
    <tripinfo id="9" depart="23.00" departLane="-755952840_0" departPos="5.10" departSpeed="23.80" departDelay="0.50" arrival="58.00" arrivalLane="118454614#0_1" arrivalPos="76.26" arrivalSpeed="15.56" duration="35.00" routeLength="294.97" waitingTime="4.00" waitingCount="1" stopTime="0.00" timeLoss="19.26" rerouteNo="0" devices="tripinfo_9" vType="DEFAULT_VEHTYPE" speedFactor="0.86" vaporized=""/>
    <tripinfo id="4" depart="10.00" departLane="-327793028_0" departPos="5.10" departSpeed="13.77" departDelay="0.00" arrival="66.00" arrivalLane="199416076#1_0" arrivalPos="250.70" arrivalSpeed="14.15" duration="56.00" routeLength="627.59" waitingTime="0.00" waitingCount="0" stopTime="0.00" timeLoss="7.88" rerouteNo="0" devices="tripinfo_4" vType="DEFAULT_VEHTYPE" speedFactor="1.03" vaporized=""/>
    <tripinfo id="17" depart="43.00" departLane="-30619634#5_0" departPos="5.10" departSpeed="7.84" departDelay="0.50" arrival="69.00" arrivalLane="30619634#6_0" arrivalPos="50.90" arrivalSpeed="7.04" duration="26.00" routeLength="168.35" waitingTime="0.00" waitingCount="0" stopTime="0.00" timeLoss="3.62" rerouteNo="0" devices="tripinfo_17" vType="DEFAULT_VEHTYPE" speedFactor="0.94" vaporized=""/>
    <tripinfo id="2" depart="5.00" departLane="-327793028_0" departPos="5.10" departSpeed="13.89" departDelay="0.00" arrival="79.00" arrivalLane="1130672333_0" arrivalPos="36.83" arrivalSpeed="26.21" duration="74.00" routeLength="1021.12" waitingTime="0.00" waitingCount="0" stopTime="0.00" timeLoss="16.73" rerouteNo="0" devices="tripinfo_2" vType="DEFAULT_VEHTYPE" speedFactor="1.01" vaporized=""/>
    <tripinfo id="21" depart="53.00" departLane="-328833896#1_0" departPos="5.10" departSpeed="13.89" departDelay="0.50" arrival="83.00" arrivalLane="-1161228580_0" arrivalPos="58.50" arrivalSpeed="13.51" duration="30.00" routeLength="267.49" waitingTime="0.00" waitingCount="0" stopTime="0.00" timeLoss="8.40" rerouteNo="0" devices="tripinfo_21" vType="DEFAULT_VEHTYPE" speedFactor="1.01" vaporized=""/>
    <tripinfo id="12" depart="30.00" departLane="-328833896#1_0" departPos="5.10" departSpeed="13.89" departDelay="0.00" arrival="93.00" arrivalLane="-328833896#2_0" arrivalPos="76.34" arrivalSpeed="13.54" duration="63.00" routeLength="632.98" waitingTime="0.00" waitingCount="0" stopTime="0.00" timeLoss="15.11" rerouteNo="0" devices="tripinfo_12" vType="DEFAULT_VEHTYPE" speedFactor="1.05" vaporized=""/>
    <tripinfo id="19" depart="48.00" departLane="299981295#0_0" departPos="5.10" departSpeed="27.78" departDelay="0.50" arrival="93.00" arrivalLane="30619634#2_0" arrivalPos="56.71" arrivalSpeed="8.95" duration="45.00" routeLength="690.76" waitingTime="0.00" waitingCount="0" stopTime="0.00" timeLoss="7.40" rerouteNo="0" devices="tripinfo_19" vType="DEFAULT_VEHTYPE" speedFactor="1.16" vaporized=""/>
    <tripinfo id="20" depart="50.00" departLane="329167779#0_0" departPos="5.10" departSpeed="13.89" departDelay="0.00" arrival="97.00" arrivalLane="327743346_0" arrivalPos="229.59" arrivalSpeed="28.17" duration="47.00" routeLength="633.76" waitingTime="0.00" waitingCount="0" stopTime="0.00" timeLoss="8.68" rerouteNo="0" devices="tripinfo_20" vType="DEFAULT_VEHTYPE" speedFactor="1.02" vaporized=""/>
    <tripinfo id="30" depart="75.00" departLane="328833896#2_0" departPos="5.10" departSpeed="13.89" departDelay="0.00" arrival="99.00" arrivalLane="-755952840_0" arrivalPos="24.55" arrivalSpeed="17.64" duration="24.00" routeLength="273.76" waitingTime="0.00" waitingCount="0" stopTime="0.00" timeLoss="8.15" rerouteNo="0" devices="tripinfo_30" vType="DEFAULT_VEHTYPE" speedFactor="1.18" vaporized=""/>
    <tripinfo id="32" depart="80.00" departLane="769567696_0" departPos="5.10" departSpeed="13.89" departDelay="0.00" arrival="101.00" arrivalLane="397562860#2_0" arrivalPos="33.19" arrivalSpeed="13.49" duration="21.00" routeLength="278.83" waitingTime="0.00" waitingCount="0" stopTime="0.00" timeLoss="0.94" rerouteNo="0" devices="tripinfo_32" vType="DEFAULT_VEHTYPE" speedFactor="1.01" vaporized=""/>
    <tripinfo id="22" depart="55.00" departLane="-30645392#2_0" departPos="5.10" departSpeed="9.76" departDelay="0.00" arrival="111.00" arrivalLane="738532262#0_0" arrivalPos="45.48" arrivalSpeed="15.57" duration="56.00" routeLength="444.95" waitingTime="3.00" waitingCount="1" stopTime="0.00" timeLoss="25.67" rerouteNo="0" devices="tripinfo_22" vType="DEFAULT_VEHTYPE" speedFactor="0.97" vaporized=""/>
    <tripinfo id="3" depart="8.00" departLane="30619634#0_0" departPos="5.10" departSpeed="8.33" departDelay="0.50" arrival="113.00" arrivalLane="118454614#0_1" arrivalPos="76.26" arrivalSpeed="18.16" duration="105.00" routeLength="1134.59" waitingTime="0.00" waitingCount="0" stopTime="0.00" timeLoss="29.02" rerouteNo="0" devices="tripinfo_3" vType="DEFAULT_VEHTYPE" speedFactor="1.08" vaporized=""/>
    <tripinfo id="45" depart="113.00" departLane="118454614#0_0" departPos="5.10" departSpeed="22.22" departDelay="0.50" arrival="117.00" arrivalLane="118454614#0_0" arrivalPos="76.26" arrivalSpeed="23.31" duration="4.00" routeLength="71.16" waitingTime="0.00" waitingCount="0" stopTime="0.00" timeLoss="0.12" rerouteNo="0" devices="tripinfo_45" vType="DEFAULT_VEHTYPE" speedFactor="1.09" vaporized=""/>
    <tripinfo id="15" depart="40.00" departLane="30619424#1_0" departPos="5.10" departSpeed="11.95" departDelay="2.50" arrival="121.00" arrivalLane="-397562860#0_0" arrivalPos="63.66" arrivalSpeed="12.82" duration="81.00" routeLength="1067.45" waitingTime="0.00" waitingCount="0" stopTime="0.00" timeLoss="19.51" rerouteNo="0" devices="tripinfo_15" vType="DEFAULT_VEHTYPE" speedFactor="0.93" vaporized=""/>
    <tripinfo id="23" depart="58.00" departLane="397562860#1_0" departPos="5.10" departSpeed="12.36" departDelay="0.50" arrival="121.00" arrivalLane="-329167737_0" arrivalPos="609.72" arrivalSpeed="11.71" duration="63.00" routeLength="703.48" waitingTime="0.00" waitingCount="0" stopTime="0.00" timeLoss="4.67" rerouteNo="0" devices="tripinfo_23" vType="DEFAULT_VEHTYPE" speedFactor="0.89" vaporized=""/>
    <tripinfo id="25" depart="63.00" departLane="643466772_0" departPos="5.10" departSpeed="4.00" departDelay="0.50" arrival="122.00" arrivalLane="-907577402_0" arrivalPos="52.95" arrivalSpeed="11.69" duration="59.00" routeLength="555.22" waitingTime="10.00" waitingCount="1" stopTime="0.00" timeLoss="23.29" rerouteNo="0" devices="tripinfo_25" vType="DEFAULT_VEHTYPE" speedFactor="0.87" vaporized=""/>
    <tripinfo id="40" depart="100.00" departLane="-1127825145_0" departPos="5.10" departSpeed="13.89" departDelay="0.00" arrival="125.00" arrivalLane="643466772_0" arrivalPos="9.10" arrivalSpeed="12.43" duration="25.00" routeLength="283.84" waitingTime="0.00" waitingCount="0" stopTime="0.00" timeLoss="9.54" rerouteNo="0" devices="tripinfo_40" vType="DEFAULT_VEHTYPE" speedFactor="1.03" vaporized=""/>
    <tripinfo id="41" depart="103.00" departLane="397562860#1_0" departPos="5.10" departSpeed="13.29" departDelay="0.50" arrival="127.00" arrivalLane="329167779#1_0" arrivalPos="64.42" arrivalSpeed="12.05" duration="24.00" routeLength="235.65" waitingTime="0.00" waitingCount="0" stopTime="0.00" timeLoss="3.70" rerouteNo="0" devices="tripinfo_41" vType="DEFAULT_VEHTYPE" speedFactor="0.96" vaporized=""/>
    <tripinfo id="42" depart="105.00" departLane="-397562860#4_0" departPos="5.10" departSpeed="13.89" departDelay="0.00" arrival="127.00" arrivalLane="-1524206042_0" arrivalPos="110.76" arrivalSpeed="14.73" duration="22.00" routeLength="276.76" waitingTime="0.00" waitingCount="0" stopTime="0.00" timeLoss="2.90" rerouteNo="0" devices="tripinfo_42" vType="DEFAULT_VEHTYPE" speedFactor="1.09" vaporized=""/>
    <tripinfo id="29" depart="73.00" departLane="-30619423_0" departPos="5.10" departSpeed="12.94" departDelay="0.50" arrival="133.00" arrivalLane="30619422#0_0" arrivalPos="231.26" arrivalSpeed="12.25" duration="60.00" routeLength="632.80" waitingTime="0.00" waitingCount="0" stopTime="0.00" timeLoss="8.72" rerouteNo="0" devices="tripinfo_29" vType="DEFAULT_VEHTYPE" speedFactor="0.93" vaporized=""/>
    <tripinfo id="8" depart="20.00" departLane="199416076#1_0" departPos="5.10" departSpeed="13.03" departDelay="0.00" arrival="136.00" arrivalLane="755952845#1_0" arrivalPos="32.07" arrivalSpeed="12.48" duration="116.00" routeLength="1447.71" waitingTime="0.00" waitingCount="0" stopTime="0.00" timeLoss="22.75" rerouteNo="0" devices="tripinfo_8" vType="DEFAULT_VEHTYPE" speedFactor="0.94" vaporized=""/>
    <tripinfo id="46" depart="115.00" departLane="-329167779#1_0" departPos="5.10" departSpeed="13.85" departDelay="0.00" arrival="137.00" arrivalLane="397562860#2_0" arrivalPos="33.19" arrivalSpeed="13.34" duration="22.00" routeLength="221.64" waitingTime="0.00" waitingCount="0" stopTime="0.00" timeLoss="4.47" rerouteNo="0" devices="tripinfo_46" vType="DEFAULT_VEHTYPE" speedFactor="1.00" vaporized=""/>
    <tripinfo id="49" depart="123.00" departLane="1168359536_0" departPos="5.10" departSpeed="17.08" departDelay="0.50" arrival="138.00" arrivalLane="1168359536_0" arrivalPos="320.24" arrivalSpeed="22.87" duration="15.00" routeLength="315.14" waitingTime="0.00" waitingCount="0" stopTime="0.00" timeLoss="0.79" rerouteNo="0" devices="tripinfo_49" vType="DEFAULT_VEHTYPE" speedFactor="0.85" vaporized=""/>
    <tripinfo id="5" depart="13.00" departLane="328840073_0" departPos="5.10" departSpeed="18.46" departDelay="0.50" arrival="142.00" arrivalLane="-1127825145_0" arrivalPos="144.31" arrivalSpeed="11.04" duration="129.00" routeLength="1766.95" waitingTime="0.00" waitingCount="0" stopTime="0.00" timeLoss="15.04" rerouteNo="0" devices="tripinfo_5" vType="DEFAULT_VEHTYPE" speedFactor="0.83" vaporized=""/>
    <tripinfo id="33" depart="83.00" departLane="30619634#4_0" departPos="5.10" departSpeed="8.33" departDelay="0.50" arrival="148.00" arrivalLane="118454607_0" arrivalPos="81.04" arrivalSpeed="19.77" duration="65.00" routeLength="871.98" waitingTime="0.00" waitingCount="0" stopTime="0.00" timeLoss="19.32" rerouteNo="0" devices="tripinfo_33" vType="DEFAULT_VEHTYPE" speedFactor="1.17" vaporized=""/>
    <tripinfo id="26" depart="65.00" departLane="299981295#1_2" departPos="5.10" departSpeed="18.85" departDelay="0.00" arrival="149.00" arrivalLane="-328833896#0_0" arrivalPos="76.96" arrivalSpeed="11.63" duration="84.00" routeLength="910.35" waitingTime="13.00" waitingCount="1" stopTime="0.00" timeLoss="29.46" rerouteNo="0" devices="tripinfo_26" vType="DEFAULT_VEHTYPE" speedFactor="0.92" vaporized=""/>
    <tripinfo id="18" depart="45.00" departLane="-30619634#4_0" departPos="5.10" departSpeed="7.80" departDelay="0.00" arrival="157.00" arrivalLane="-397562860#1_0" arrivalPos="36.89" arrivalSpeed="11.45" duration="112.00" routeLength="1404.64" waitingTime="0.00" waitingCount="0" stopTime="0.00" timeLoss="24.67" rerouteNo="0" devices="tripinfo_18" vType="DEFAULT_VEHTYPE" speedFactor="0.94" vaporized=""/>
    <tripinfo id="11" depart="28.00" departLane="30619634#6_0" departPos="5.10" departSpeed="8.33" departDelay="0.50" arrival="161.00" arrivalLane="-118454616_0" arrivalPos="1.16" arrivalSpeed="15.28" duration="133.00" routeLength="1198.45" waitingTime="20.00" waitingCount="1" stopTime="0.00" timeLoss="56.66" rerouteNo="0" devices="tripinfo_11" vType="DEFAULT_VEHTYPE" speedFactor="1.03" vaporized=""/>
    <tripinfo id="38" depart="95.00" departLane="328833896#1_0" departPos="5.10" departSpeed="13.89" departDelay="0.00" arrival="163.00" arrivalLane="118454606_0" arrivalPos="0.20" arrivalSpeed="21.87" duration="68.00" routeLength="577.18" waitingTime="16.00" waitingCount="1" stopTime="0.00" timeLoss="36.40" rerouteNo="0" devices="tripinfo_38" vType="DEFAULT_VEHTYPE" speedFactor="1.10" vaporized=""/>
    <tripinfo id="37" depart="93.00" departLane="328833896#0_0" departPos="5.10" departSpeed="13.89" departDelay="0.50" arrival="164.00" arrivalLane="118454607_0" arrivalPos="81.04" arrivalSpeed="22.54" duration="71.00" routeLength="651.56" waitingTime="17.00" waitingCount="1" stopTime="0.00" timeLoss="37.23" rerouteNo="0" devices="tripinfo_37" vType="DEFAULT_VEHTYPE" speedFactor="1.18" vaporized=""/>
    <tripinfo id="47" depart="118.00" departLane="199416076#1_0" departPos="5.10" departSpeed="12.51" departDelay="0.50" arrival="165.00" arrivalLane="30619634#6_0" arrivalPos="50.90" arrivalSpeed="6.76" duration="47.00" routeLength="427.60" waitingTime="0.00" waitingCount="0" stopTime="0.00" timeLoss="3.57" rerouteNo="0" devices="tripinfo_47" vType="DEFAULT_VEHTYPE" speedFactor="0.90" vaporized=""/>
    <tripinfo id="63" depart="158.00" departLane="907577402_0" departPos="5.10" departSpeed="13.71" departDelay="0.50" arrival="170.00" arrivalLane="397562860#0_0" arrivalPos="63.66" arrivalSpeed="13.18" duration="12.00" routeLength="119.25" waitingTime="0.00" waitingCount="0" stopTime="0.00" timeLoss="2.22" rerouteNo="0" devices="tripinfo_63" vType="DEFAULT_VEHTYPE" speedFactor="0.99" vaporized=""/>
    <tripinfo id="35" depart="88.00" departLane="643466772_0" departPos="5.10" departSpeed="4.00" departDelay="0.50" arrival="172.00" arrivalLane="397562860#2_0" arrivalPos="33.19" arrivalSpeed="13.57" duration="84.00" routeLength="664.88" waitingTime="24.00" waitingCount="2" stopTime="0.00" timeLoss="44.94" rerouteNo="0" devices="tripinfo_35" vType="DEFAULT_VEHTYPE" speedFactor="1.02" vaporized=""/>
    <tripinfo id="36" depart="90.00" departLane="30619423_0" departPos="5.10" departSpeed="13.25" departDelay="0.00" arrival="173.00" arrivalLane="-30619634#1_0" arrivalPos="307.52" arrivalSpeed="6.95" duration="83.00" routeLength="667.01" waitingTime="0.00" waitingCount="0" stopTime="0.00" timeLoss="8.21" rerouteNo="0" devices="tripinfo_36" vType="DEFAULT_VEHTYPE" speedFactor="0.97" vaporized=""/>
    <tripinfo id="39" depart="98.00" departLane="-1117321962_0" departPos="5.10" departSpeed="12.51" departDelay="0.50" arrival="175.00" arrivalLane="-329167772_0" arrivalPos="87.38" arrivalSpeed="11.72" duration="77.00" routeLength="829.52" waitingTime="3.00" waitingCount="1" stopTime="0.00" timeLoss="24.16" rerouteNo="0" devices="tripinfo_39" vType="DEFAULT_VEHTYPE" speedFactor="0.90" vaporized=""/>
    <tripinfo id="16" depart="40.00" departLane="30619634#0_0" departPos="5.10" departSpeed="7.32" departDelay="0.00" arrival="177.00" arrivalLane="30619419_0" arrivalPos="9.32" arrivalSpeed="10.20" duration="137.00" routeLength="986.64" waitingTime="24.00" waitingCount="1" stopTime="0.00" timeLoss="52.02" rerouteNo="0" devices="tripinfo_16" vType="DEFAULT_VEHTYPE" speedFactor="0.88" vaporized=""/>
    <tripinfo id="58" depart="145.00" departLane="-755952845#1_0" departPos="5.10" departSpeed="13.49" departDelay="0.00" arrival="179.00" arrivalLane="-329167779#0_0" arrivalPos="130.12" arrivalSpeed="13.33" duration="34.00" routeLength="364.79" waitingTime="0.00" waitingCount="0" stopTime="0.00" timeLoss="6.94" rerouteNo="0" devices="tripinfo_58" vType="DEFAULT_VEHTYPE" speedFactor="1.02" vaporized=""/>
    <tripinfo id="13" depart="33.00" departLane="-30619422#0_0" departPos="5.10" departSpeed="13.89" departDelay="0.50" arrival="183.00" arrivalLane="-30645392#0_0" arrivalPos="85.36" arrivalSpeed="14.49" duration="150.00" routeLength="1641.85" waitingTime="13.00" waitingCount="1" stopTime="0.00" timeLoss="48.84" rerouteNo="0" devices="tripinfo_13" vType="DEFAULT_VEHTYPE" speedFactor="1.12" vaporized=""/>
    <tripinfo id="55" depart="138.00" departLane="118454614#0_1" departPos="5.10" departSpeed="22.13" departDelay="0.50" arrival="185.00" arrivalLane="327743346_2" arrivalPos="229.59" arrivalSpeed="27.17" duration="47.00" routeLength="685.02" waitingTime="8.00" waitingCount="1" stopTime="0.00" timeLoss="20.00" rerouteNo="0" devices="tripinfo_55" vType="DEFAULT_VEHTYPE" speedFactor="1.00" vaporized=""/>
    <tripinfo id="53" depart="137.00" departLane="-328833896#1_0" departPos="5.10" departSpeed="12.19" departDelay="4.50" arrival="186.00" arrivalLane="643445231#0_0" arrivalPos="50.56" arrivalSpeed="14.71" duration="49.00" routeLength="522.10" waitingTime="0.00" waitingCount="0" stopTime="0.00" timeLoss="15.02" rerouteNo="0" devices="tripinfo_53" vType="DEFAULT_VEHTYPE" speedFactor="1.10" vaporized=""/>
    <tripinfo id="14" depart="35.00" departLane="-30619422#1_0" departPos="5.10" departSpeed="11.30" departDelay="0.00" arrival="193.00" arrivalLane="-328833896#1_0" arrivalPos="82.69" arrivalSpeed="13.10" duration="158.00" routeLength="1718.94" waitingTime="1.00" waitingCount="1" stopTime="0.00" timeLoss="40.66" rerouteNo="0" devices="tripinfo_14" vType="DEFAULT_VEHTYPE" speedFactor="0.99" vaporized=""/>
    <tripinfo id="64" depart="160.00" departLane="-755952845#1_0" departPos="5.10" departSpeed="13.02" departDelay="0.00" arrival="193.00" arrivalLane="-1524206042_0" arrivalPos="110.76" arrivalSpeed="12.17" duration="33.00" routeLength="318.05" waitingTime="0.00" waitingCount="0" stopTime="0.00" timeLoss="6.85" rerouteNo="0" devices="tripinfo_64" vType="DEFAULT_VEHTYPE" speedFactor="0.94" vaporized=""/>
    <tripinfo id="31" depart="78.00" departLane="-199416076#1_0" departPos="5.10" departSpeed="14.10" departDelay="0.50" arrival="195.00" arrivalLane="-397562860#2_0" arrivalPos="33.19" arrivalSpeed="11.01" duration="117.00" routeLength="1400.64" waitingTime="11.00" waitingCount="1" stopTime="0.00" timeLoss="46.91" rerouteNo="0" devices="tripinfo_31" vType="DEFAULT_VEHTYPE" speedFactor="1.15" vaporized=""/>
    <tripinfo id="65" depart="163.00" departLane="-755952840_0" departPos="5.10" departSpeed="24.51" departDelay="0.50" arrival="198.00" arrivalLane="769567696_0" arrivalPos="63.97" arrivalSpeed="12.20" duration="35.00" routeLength="486.30" waitingTime="0.00" waitingCount="0" stopTime="0.00" timeLoss="8.99" rerouteNo="0" devices="tripinfo_65" vType="DEFAULT_VEHTYPE" speedFactor="0.88" vaporized=""/>
    <tripinfo id="28" depart="70.00" departLane="-30619422#1_0" departPos="5.10" departSpeed="13.89" departDelay="0.00" arrival="204.00" arrivalLane="-118454616_0" arrivalPos="1.16" arrivalSpeed="14.48" duration="134.00" routeLength="1490.05" waitingTime="2.00" waitingCount="1" stopTime="0.00" timeLoss="49.57" rerouteNo="0" devices="tripinfo_28" vType="DEFAULT_VEHTYPE" speedFactor="1.13" vaporized=""/>
    <tripinfo id="60" depart="150.00" departLane="1161228580_0" departPos="5.10" departSpeed="13.89" departDelay="0.00" arrival="206.00" arrivalLane="-328833896#2_0" arrivalPos="76.34" arrivalSpeed="14.15" duration="56.00" routeLength="558.65" waitingTime="0.00" waitingCount="0" stopTime="0.00" timeLoss="15.31" rerouteNo="0" devices="tripinfo_60" vType="DEFAULT_VEHTYPE" speedFactor="1.08" vaporized=""/>
    <tripinfo id="62" depart="155.00" departLane="299981295#0_2" departPos="5.10" departSpeed="27.78" departDelay="0.00" arrival="208.00" arrivalLane="-118454616_0" arrivalPos="1.16" arrivalSpeed="15.84" duration="53.00" routeLength="917.52" waitingTime="0.00" waitingCount="0" stopTime="0.00" timeLoss="17.90" rerouteNo="0" devices="tripinfo_62" vType="DEFAULT_VEHTYPE" speedFactor="1.02" vaporized=""/>
    <tripinfo id="69" depart="173.00" departLane="769567696_0" departPos="5.10" departSpeed="13.89" departDelay="0.50" arrival="210.00" arrivalLane="1524206042_0" arrivalPos="105.82" arrivalSpeed="13.92" duration="37.00" routeLength="373.51" waitingTime="1.00" waitingCount="1" stopTime="0.00" timeLoss="9.35" rerouteNo="0" devices="tripinfo_69" vType="DEFAULT_VEHTYPE" speedFactor="1.02" vaporized=""/>
    <tripinfo id="54" depart="135.00" departLane="738532262#0_0" departPos="5.10" departSpeed="16.84" departDelay="0.00" arrival="213.00" arrivalLane="1524206042_0" arrivalPos="105.82" arrivalSpeed="12.86" duration="78.00" routeLength="811.65" waitingTime="5.00" waitingCount="1" stopTime="0.00" timeLoss="29.68" rerouteNo="0" devices="tripinfo_54" vType="DEFAULT_VEHTYPE" speedFactor="1.00" vaporized=""/>
    <tripinfo id="51" depart="128.00" departLane="-328833896#1_0" departPos="5.10" departSpeed="13.89" departDelay="0.50" arrival="216.00" arrivalLane="-30645384_0" arrivalPos="581.77" arrivalSpeed="14.95" duration="88.00" routeLength="1118.49" waitingTime="0.00" waitingCount="0" stopTime="0.00" timeLoss="18.51" rerouteNo="0" devices="tripinfo_51" vType="DEFAULT_VEHTYPE" speedFactor="1.17" vaporized=""/>
    <tripinfo id="81" depart="203.00" departLane="397562860#1_0" departPos="5.10" departSpeed="13.86" departDelay="0.50" arrival="219.00" arrivalLane="397562860#3_0" arrivalPos="114.18" arrivalSpeed="13.68" duration="16.00" routeLength="208.15" waitingTime="0.00" waitingCount="0" stopTime="0.00" timeLoss="0.62" rerouteNo="0" devices="tripinfo_81" vType="DEFAULT_VEHTYPE" speedFactor="1.00" vaporized=""/>
    <tripinfo id="52" depart="130.00" departLane="-199416076#1_0" departPos="5.10" departSpeed="12.53" departDelay="0.00" arrival="221.00" arrivalLane="30619422#0_0" arrivalPos="231.26" arrivalSpeed="13.75" duration="91.00" routeLength="948.61" waitingTime="0.00" waitingCount="0" stopTime="0.00" timeLoss="9.40" rerouteNo="0" devices="tripinfo_52" vType="DEFAULT_VEHTYPE" speedFactor="1.02" vaporized=""/>
    <tripinfo id="73" depart="183.00" departLane="-30619422#0_0" departPos="5.10" departSpeed="13.89" departDelay="0.50" arrival="221.00" arrivalLane="-30619634#4_0" arrivalPos="26.86" arrivalSpeed="8.79" duration="38.00" routeLength="388.39" waitingTime="0.00" waitingCount="0" stopTime="0.00" timeLoss="3.33" rerouteNo="0" devices="tripinfo_73" vType="DEFAULT_VEHTYPE" speedFactor="1.06" vaporized=""/>
    <tripinfo id="66" depart="166.00" departLane="-329167779#1_0" departPos="5.10" departSpeed="12.60" departDelay="1.00" arrival="222.00" arrivalLane="327743346_0" arrivalPos="229.59" arrivalSpeed="24.64" duration="56.00" routeLength="660.42" waitingTime="0.00" waitingCount="0" stopTime="0.00" timeLoss="10.29" rerouteNo="0" devices="tripinfo_66" vType="DEFAULT_VEHTYPE" speedFactor="0.91" vaporized=""/>
    <tripinfo id="34" depart="85.00" departLane="-30619423_0" departPos="5.10" departSpeed="12.31" departDelay="0.00" arrival="223.00" arrivalLane="-755952845#0_0" arrivalPos="64.01" arrivalSpeed="13.71" duration="138.00" routeLength="1682.12" waitingTime="0.00" waitingCount="0" stopTime="0.00" timeLoss="33.21" rerouteNo="0" devices="tripinfo_34" vType="DEFAULT_VEHTYPE" speedFactor="0.99" vaporized=""/>
    <tripinfo id="44" depart="110.00" departLane="-199416076#1_0" departPos="5.10" departSpeed="11.90" departDelay="0.00" arrival="225.00" arrivalLane="318042913_0" arrivalPos="1300.11" arrivalSpeed="28.76" duration="115.00" routeLength="2024.09" waitingTime="10.00" waitingCount="1" stopTime="0.00" timeLoss="31.21" rerouteNo="0" devices="tripinfo_44" vType="DEFAULT_VEHTYPE" speedFactor="1.04" vaporized=""/>
    <tripinfo id="57" depart="143.00" departLane="1161228580_0" departPos="5.10" departSpeed="13.89" departDelay="0.50" arrival="229.00" arrivalLane="-907577402_0" arrivalPos="52.95" arrivalSpeed="14.95" duration="86.00" routeLength="959.00" waitingTime="1.00" waitingCount="1" stopTime="0.00" timeLoss="35.76" rerouteNo="0" devices="tripinfo_57" vType="DEFAULT_VEHTYPE" speedFactor="1.14" vaporized=""/>
    <tripinfo id="27" depart="68.00" departLane="30619422#0_0" departPos="5.10" departSpeed="13.18" departDelay="0.50" arrival="236.00" arrivalLane="642258510_0" arrivalPos="168.18" arrivalSpeed="12.58" duration="168.00" routeLength="1905.04" waitingTime="3.00" waitingCount="1" stopTime="0.00" timeLoss="35.86" rerouteNo="0" devices="tripinfo_27" vType="DEFAULT_VEHTYPE" speedFactor="0.95" vaporized=""/>
    <tripinfo id="67" depart="168.00" departLane="299981295#0_0" departPos="5.10" departSpeed="25.41" departDelay="0.50" arrival="236.00" arrivalLane="30619634#5_0" arrivalPos="51.77" arrivalSpeed="7.16" duration="68.00" routeLength="800.45" waitingTime="0.00" waitingCount="0" stopTime="0.00" timeLoss="9.68" rerouteNo="0" devices="tripinfo_67" vType="DEFAULT_VEHTYPE" speedFactor="0.91" vaporized=""/>
    <tripinfo id="43" depart="108.00" departLane="-30619422#0_0" departPos="5.10" departSpeed="9.40" departDelay="0.50" arrival="237.00" arrivalLane="1117321968#0_0" arrivalPos="195.64" arrivalSpeed="13.57" duration="129.00" routeLength="1428.92" waitingTime="7.00" waitingCount="1" stopTime="0.00" timeLoss="32.80" rerouteNo="0" devices="tripinfo_43" vType="DEFAULT_VEHTYPE" speedFactor="1.04" vaporized=""/>
    <tripinfo id="71" depart="178.00" departLane="1256487147_1" departPos="5.10" departSpeed="21.62" departDelay="0.50" arrival="237.00" arrivalLane="397562860#1_0" arrivalPos="36.89" arrivalSpeed="12.80" duration="59.00" routeLength="885.48" waitingTime="0.00" waitingCount="0" stopTime="0.00" timeLoss="11.43" rerouteNo="0" devices="tripinfo_71" vType="DEFAULT_VEHTYPE" speedFactor="0.97" vaporized=""/>
    <tripinfo id="24" depart="60.00" departLane="30619634#0_0" departPos="5.10" departSpeed="6.58" departDelay="0.00" arrival="238.00" arrivalLane="-643445231#0_0" arrivalPos="50.62" arrivalSpeed="10.39" duration="178.00" routeLength="1167.82" waitingTime="40.00" waitingCount="2" stopTime="0.00" timeLoss="72.80" rerouteNo="0" devices="tripinfo_24" vType="DEFAULT_VEHTYPE" speedFactor="0.83" vaporized=""/>
    <tripinfo id="89" depart="223.00" departLane="1161228580_0" departPos="5.10" departSpeed="13.89" departDelay="0.50" arrival="241.00" arrivalLane="-328833896#1_0" arrivalPos="82.69" arrivalSpeed="13.39" duration="18.00" routeLength="180.38" waitingTime="0.00" waitingCount="0" stopTime="0.00" timeLoss="3.75" rerouteNo="0" devices="tripinfo_89" vType="DEFAULT_VEHTYPE" speedFactor="1.02" vaporized=""/>
    <tripinfo id="74" depart="185.00" departLane="30619422#1_0" departPos="5.10" departSpeed="13.27" departDelay="0.00" arrival="243.00" arrivalLane="30619424#1_0" arrivalPos="99.58" arrivalSpeed="12.05" duration="58.00" routeLength="649.02" waitingTime="0.00" waitingCount="0" stopTime="0.00" timeLoss="5.50" rerouteNo="0" devices="tripinfo_74" vType="DEFAULT_VEHTYPE" speedFactor="0.96" vaporized=""/>
    <tripinfo id="88" depart="220.00" departLane="118454616_0" departPos="1.75" departSpeed="24.75" departDelay="0.00" arrival="243.00" arrivalLane="643445231#0_0" arrivalPos="50.56" arrivalSpeed="13.75" duration="23.00" routeLength="219.43" waitingTime="0.00" waitingCount="0" stopTime="0.00" timeLoss="10.37" rerouteNo="0" devices="tripinfo_88" vType="DEFAULT_VEHTYPE" speedFactor="1.01" vaporized=""/>
    <tripinfo id="61" depart="153.00" departLane="-328833896#2_0" departPos="5.10" departSpeed="13.89" departDelay="0.50" arrival="244.00" arrivalLane="643445231#1_0" arrivalPos="638.14" arrivalSpeed="14.39" duration="91.00" routeLength="1073.40" waitingTime="1.00" waitingCount="1" stopTime="0.00" timeLoss="21.64" rerouteNo="0" devices="tripinfo_61" vType="DEFAULT_VEHTYPE" speedFactor="1.12" vaporized=""/>