<?xml version="1.0" encoding="UTF-8"?>

<!-- generated on 2026-06-28T01:19:55.632451+00:00 by Eclipse SUMO sumo 1.27.1
<sumoConfiguration xmlns:xsi="http://www.w3.org/2001/XMLSchema-instance" xsi:noNamespaceSchemaLocation="http://sumo.dlr.de/xsd/sumoConfiguration.xsd">

    <input>
        <net-file value="osm.net.xml"/>
        <route-files value="routes_sature.rou.xml"/>
    </input>

    <output>
        <tripinfo-output value="baseline_tripinfo_sature.xml"/>
        <statistic-output value="baseline_stats_sature.xml"/>
    </output>

    <time>
        <begin value="0"/>
        <end value="3600"/>
    </time>

    <processing>
        <ignore-route-errors value="true"/>
    </processing>

    <report>
        <no-warnings value="true"/>
        <duration-log.statistics value="true"/>
        <no-step-log value="true"/>
    </report>

</sumoConfiguration>
-->

<tripinfos xmlns:xsi="http://www.w3.org/2001/XMLSchema-instance" xsi:noNamespaceSchemaLocation="http://sumo.dlr.de/xsd/tripinfo_file.xsd">
    <tripinfo id="1" depart="1.00" departLane="1161228580_0" departPos="5.10" departSpeed="13.03" departDelay="0.40" arrival="16.00" arrivalLane="-1161228580_0" arrivalPos="58.50" arrivalSpeed="11.78" duration="15.00" routeLength="116.57" waitingTime="0.00" waitingCount="0" stopTime="0.00" timeLoss="4.09" rerouteNo="0" devices="tripinfo_1" vType="DEFAULT_VEHTYPE" speedFactor="0.94" vaporized=""/>
    <tripinfo id="6" depart="4.00" departLane="755952845#1_0" departPos="5.10" departSpeed="13.89" departDelay="0.40" arrival="30.00" arrivalLane="-329167779#0_0" arrivalPos="130.12" arrivalSpeed="14.20" duration="26.00" routeLength="328.05" waitingTime="0.00" waitingCount="0" stopTime="0.00" timeLoss="2.51" rerouteNo="0" devices="tripinfo_6" vType="DEFAULT_VEHTYPE" speedFactor="1.05" vaporized=""/>
    <tripinfo id="45" depart="27.00" departLane="118454614#0_0" departPos="5.10" departSpeed="22.22" departDelay="0.00" arrival="31.00" arrivalLane="118454614#0_0" arrivalPos="76.26" arrivalSpeed="23.31" duration="4.00" routeLength="71.16" waitingTime="0.00" waitingCount="0" stopTime="0.00" timeLoss="0.10" rerouteNo="0" devices="tripinfo_45" vType="DEFAULT_VEHTYPE" speedFactor="1.09" vaporized=""/>
    <tripinfo id="10" depart="9.00" departLane="397562860#0_0" departPos="5.10" departSpeed="14.13" departDelay="3.00" arrival="32.00" arrivalLane="1524206042_0" arrivalPos="105.82" arrivalSpeed="14.24" duration="23.00" routeLength="252.04" waitingTime="0.00" waitingCount="0" stopTime="0.00" timeLoss="5.35" rerouteNo="0" devices="tripinfo_10" vType="DEFAULT_VEHTYPE" speedFactor="1.09" vaporized=""/>
    <tripinfo id="17" depart="11.00" departLane="-30619634#5_0" departPos="5.10" departSpeed="7.84" departDelay="0.80" arrival="38.00" arrivalLane="30619634#6_0" arrivalPos="50.90" arrivalSpeed="7.76" duration="27.00" routeLength="168.35" waitingTime="0.00" waitingCount="0" stopTime="0.00" timeLoss="4.43" rerouteNo="0" devices="tripinfo_17" vType="DEFAULT_VEHTYPE" speedFactor="0.94" vaporized=""/>
    <tripinfo id="32" depart="20.00" departLane="769567696_0" departPos="5.10" departSpeed="13.89" departDelay="0.80" arrival="41.00" arrivalLane="397562860#2_0" arrivalPos="33.19" arrivalSpeed="13.72" duration="21.00" routeLength="278.83" waitingTime="0.00" waitingCount="0" stopTime="0.00" timeLoss="0.72" rerouteNo="0" devices="tripinfo_32" vType="DEFAULT_VEHTYPE" speedFactor="1.01" vaporized=""/>
    <tripinfo id="21" depart="13.00" departLane="-328833896#1_0" departPos="5.10" departSpeed="11.26" departDelay="0.40" arrival="42.00" arrivalLane="-1161228580_0" arrivalPos="58.50" arrivalSpeed="13.75" duration="29.00" routeLength="267.49" waitingTime="0.00" waitingCount="0" stopTime="0.00" timeLoss="8.10" rerouteNo="0" devices="tripinfo_21" vType="DEFAULT_VEHTYPE" speedFactor="1.01" vaporized=""/>
    <tripinfo id="30" depart="18.00" departLane="328833896#2_0" departPos="5.10" departSpeed="13.89" departDelay="0.00" arrival="42.00" arrivalLane="-755952840_0" arrivalPos="24.55" arrivalSpeed="15.91" duration="24.00" routeLength="273.76" waitingTime="0.00" waitingCount="0" stopTime="0.00" timeLoss="8.02" rerouteNo="0" devices="tripinfo_30" vType="DEFAULT_VEHTYPE" speedFactor="1.18" vaporized=""/>
    <tripinfo id="49" depart="30.00" departLane="1168359536_0" departPos="5.10" departSpeed="23.62" departDelay="0.60" arrival="44.00" arrivalLane="1168359536_0" arrivalPos="320.24" arrivalSpeed="23.39" duration="14.00" routeLength="315.14" waitingTime="0.00" waitingCount="0" stopTime="0.00" timeLoss="0.30" rerouteNo="0" devices="tripinfo_49" vType="DEFAULT_VEHTYPE" speedFactor="0.85" vaporized=""/>
    <tripinfo id="7" depart="5.00" departLane="-30619422#1_0" departPos="5.10" departSpeed="12.31" departDelay="0.80" arrival="45.00" arrivalLane="-30619422#0_0" arrivalPos="226.17" arrivalSpeed="12.01" duration="40.00" routeLength="463.02" waitingTime="0.00" waitingCount="0" stopTime="0.00" timeLoss="2.03" rerouteNo="0" devices="tripinfo_7" vType="DEFAULT_VEHTYPE" speedFactor="0.89" vaporized=""/>
    <tripinfo id="0" depart="0.00" departLane="30619424#1_0" departPos="5.10" departSpeed="13.89" departDelay="0.00" arrival="47.00" arrivalLane="-1137542845_0" arrivalPos="0.55" arrivalSpeed="5.95" duration="47.00" routeLength="584.07" waitingTime="2.00" waitingCount="1" stopTime="0.00" timeLoss="21.04" rerouteNo="0" devices="tripinfo_0" vType="DEFAULT_VEHTYPE" speedFactor="1.06" vaporized=""/>
    <tripinfo id="42" depart="26.00" departLane="-397562860#4_0" departPos="5.10" departSpeed="13.89" departDelay="0.80" arrival="48.00" arrivalLane="-1524206042_0" arrivalPos="110.76" arrivalSpeed="15.10" duration="22.00" routeLength="276.76" waitingTime="0.00" waitingCount="0" stopTime="0.00" timeLoss="2.36" rerouteNo="0" devices="tripinfo_42" vType="DEFAULT_VEHTYPE" speedFactor="1.09" vaporized=""/>
    <tripinfo id="41" depart="25.00" departLane="397562860#1_0" departPos="5.10" departSpeed="13.29" departDelay="0.40" arrival="50.00" arrivalLane="329167779#1_0" arrivalPos="64.42" arrivalSpeed="13.05" duration="25.00" routeLength="235.65" waitingTime="0.00" waitingCount="0" stopTime="0.00" timeLoss="5.15" rerouteNo="0" devices="tripinfo_41" vType="DEFAULT_VEHTYPE" speedFactor="0.96" vaporized=""/>
    <tripinfo id="46" depart="28.00" departLane="-329167779#1_0" departPos="5.10" departSpeed="13.85" departDelay="0.40" arrival="50.00" arrivalLane="397562860#2_0" arrivalPos="33.19" arrivalSpeed="12.67" duration="22.00" routeLength="221.64" waitingTime="0.00" waitingCount="0" stopTime="0.00" timeLoss="4.45" rerouteNo="0" devices="tripinfo_46" vType="DEFAULT_VEHTYPE" speedFactor="1.00" vaporized=""/>
    <tripinfo id="40" depart="28.00" departLane="-1127825145_0" departPos="5.10" departSpeed="9.79" departDelay="4.00" arrival="55.00" arrivalLane="643466772_0" arrivalPos="9.10" arrivalSpeed="13.19" duration="27.00" routeLength="283.84" waitingTime="0.00" waitingCount="0" stopTime="0.00" timeLoss="11.40" rerouteNo="0" devices="tripinfo_40" vType="DEFAULT_VEHTYPE" speedFactor="1.03" vaporized=""/>
    <tripinfo id="4" depart="4.00" departLane="-327793028_0" departPos="5.10" departSpeed="13.95" departDelay="1.60" arrival="61.00" arrivalLane="199416076#1_0" arrivalPos="250.70" arrivalSpeed="14.08" duration="57.00" routeLength="627.59" waitingTime="0.00" waitingCount="0" stopTime="0.00" timeLoss="8.50" rerouteNo="0" devices="tripinfo_4" vType="DEFAULT_VEHTYPE" speedFactor="1.03" vaporized=""/>
    <tripinfo id="20" depart="12.00" departLane="329167779#0_0" departPos="5.10" departSpeed="13.89" departDelay="0.00" arrival="64.00" arrivalLane="327743346_0" arrivalPos="229.59" arrivalSpeed="27.96" duration="52.00" routeLength="633.76" waitingTime="0.00" waitingCount="0" stopTime="0.00" timeLoss="13.73" rerouteNo="0" devices="tripinfo_20" vType="DEFAULT_VEHTYPE" speedFactor="1.02" vaporized=""/>
    <tripinfo id="9" depart="6.00" departLane="-755952840_0" departPos="5.10" departSpeed="23.80" departDelay="0.60" arrival="65.00" arrivalLane="118454614#0_0" arrivalPos="76.26" arrivalSpeed="6.81" duration="59.00" routeLength="294.97" waitingTime="23.00" waitingCount="2" stopTime="0.00" timeLoss="42.57" rerouteNo="0" devices="tripinfo_9" vType="DEFAULT_VEHTYPE" speedFactor="0.86" vaporized=""/>
    <tripinfo id="63" depart="38.00" departLane="907577402_0" departPos="5.10" departSpeed="13.71" departDelay="0.20" arrival="65.00" arrivalLane="397562860#0_0" arrivalPos="63.66" arrivalSpeed="12.42" duration="27.00" routeLength="119.25" waitingTime="12.00" waitingCount="1" stopTime="0.00" timeLoss="17.68" rerouteNo="0" devices="tripinfo_63" vType="DEFAULT_VEHTYPE" speedFactor="0.99" vaporized=""/>
    <tripinfo id="81" depart="49.00" departLane="397562860#1_0" departPos="5.10" departSpeed="13.86" departDelay="0.40" arrival="65.00" arrivalLane="397562860#3_0" arrivalPos="114.18" arrivalSpeed="13.11" duration="16.00" routeLength="208.15" waitingTime="0.00" waitingCount="0" stopTime="0.00" timeLoss="0.72" rerouteNo="0" devices="tripinfo_81" vType="DEFAULT_VEHTYPE" speedFactor="1.00" vaporized=""/>
    <tripinfo id="55" depart="33.00" departLane="118454614#0_1" departPos="5.10" departSpeed="22.13" departDelay="0.00" arrival="68.00" arrivalLane="327743346_2" arrivalPos="229.59" arrivalSpeed="26.47" duration="35.00" routeLength="685.02" waitingTime="0.00" waitingCount="0" stopTime="0.00" timeLoss="8.26" rerouteNo="0" devices="tripinfo_55" vType="DEFAULT_VEHTYPE" speedFactor="1.00" vaporized=""/>
    <tripinfo id="58" depart="35.00" departLane="-755952845#1_0" departPos="5.10" departSpeed="13.49" departDelay="0.20" arrival="70.00" arrivalLane="-329167779#0_0" arrivalPos="130.12" arrivalSpeed="13.59" duration="35.00" routeLength="364.79" waitingTime="0.00" waitingCount="0" stopTime="0.00" timeLoss="7.28" rerouteNo="0" devices="tripinfo_58" vType="DEFAULT_VEHTYPE" speedFactor="1.02" vaporized=""/>
    <tripinfo id="65" depart="39.00" departLane="-755952840_0" departPos="5.10" departSpeed="24.51" departDelay="0.00" arrival="73.00" arrivalLane="769567696_0" arrivalPos="63.97" arrivalSpeed="11.85" duration="34.00" routeLength="486.30" waitingTime="0.00" waitingCount="0" stopTime="0.00" timeLoss="8.66" rerouteNo="0" devices="tripinfo_65" vType="DEFAULT_VEHTYPE" speedFactor="0.88" vaporized=""/>
    <tripinfo id="89" depart="54.00" departLane="1161228580_0" departPos="5.10" departSpeed="13.89" departDelay="0.60" arrival="74.00" arrivalLane="-328833896#1_0" arrivalPos="82.69" arrivalSpeed="13.66" duration="20.00" routeLength="180.38" waitingTime="0.00" waitingCount="0" stopTime="0.00" timeLoss="5.41" rerouteNo="0" devices="tripinfo_89" vType="DEFAULT_VEHTYPE" speedFactor="1.02" vaporized=""/>
    <tripinfo id="69" depart="42.00" departLane="769567696_0" departPos="5.10" departSpeed="13.89" departDelay="0.60" arrival="75.00" arrivalLane="1524206042_0" arrivalPos="105.82" arrivalSpeed="13.26" duration="33.00" routeLength="373.51" waitingTime="0.00" waitingCount="0" stopTime="0.00" timeLoss="4.27" rerouteNo="0" devices="tripinfo_69" vType="DEFAULT_VEHTYPE" speedFactor="1.02" vaporized=""/>
    <tripinfo id="23" depart="14.00" departLane="397562860#1_0" departPos="5.10" departSpeed="12.36" departDelay="0.20" arrival="77.00" arrivalLane="-329167737_0" arrivalPos="609.72" arrivalSpeed="11.66" duration="63.00" routeLength="703.48" waitingTime="0.00" waitingCount="0" stopTime="0.00" timeLoss="4.70" rerouteNo="0" devices="tripinfo_23" vType="DEFAULT_VEHTYPE" speedFactor="0.89" vaporized=""/>
    <tripinfo id="88" depart="53.00" departLane="118454616_0" departPos="1.75" departSpeed="10.22" departDelay="0.20" arrival="77.00" arrivalLane="643445231#0_0" arrivalPos="50.56" arrivalSpeed="13.31" duration="24.00" routeLength="219.43" waitingTime="0.00" waitingCount="0" stopTime="0.00" timeLoss="11.60" rerouteNo="0" devices="tripinfo_88" vType="DEFAULT_VEHTYPE" speedFactor="1.01" vaporized=""/>
    <tripinfo id="104" depart="64.00" departLane="397562860#0_0" departPos="5.10" departSpeed="12.42" departDelay="1.60" arrival="77.00" arrivalLane="397562860#1_0" arrivalPos="36.89" arrivalSpeed="12.37" duration="13.00" routeLength="109.78" waitingTime="0.00" waitingCount="0" stopTime="0.00" timeLoss="3.91" rerouteNo="0" devices="tripinfo_104" vType="DEFAULT_VEHTYPE" speedFactor="0.89" vaporized=""/>
    <tripinfo id="29" depart="18.00" departLane="-30619423_0" departPos="5.10" departSpeed="12.94" departDelay="0.60" arrival="78.00" arrivalLane="30619422#0_0" arrivalPos="231.26" arrivalSpeed="11.76" duration="60.00" routeLength="632.80" waitingTime="0.00" waitingCount="0" stopTime="0.00" timeLoss="8.88" rerouteNo="0" devices="tripinfo_29" vType="DEFAULT_VEHTYPE" speedFactor="0.93" vaporized=""/>
    <tripinfo id="64" depart="39.00" departLane="-755952845#1_0" departPos="5.10" departSpeed="4.76" departDelay="0.60" arrival="78.00" arrivalLane="-1524206042_0" arrivalPos="110.76" arrivalSpeed="12.15" duration="39.00" routeLength="318.05" waitingTime="1.00" waitingCount="1" stopTime="0.00" timeLoss="12.12" rerouteNo="0" devices="tripinfo_64" vType="DEFAULT_VEHTYPE" speedFactor="0.94" vaporized=""/>
    <tripinfo id="2" depart="2.00" departLane="-327793028_0" departPos="5.10" departSpeed="13.89" departDelay="0.80" arrival="82.00" arrivalLane="1130672333_0" arrivalPos="36.83" arrivalSpeed="26.10" duration="80.00" routeLength="1021.12" waitingTime="0.00" waitingCount="0" stopTime="0.00" timeLoss="23.02" rerouteNo="0" devices="tripinfo_2" vType="DEFAULT_VEHTYPE" speedFactor="1.01" vaporized=""/>
    <tripinfo id="33" depart="20.00" departLane="30619634#4_0" departPos="5.10" departSpeed="8.33" departDelay="0.20" arrival="86.00" arrivalLane="118454607_0" arrivalPos="81.04" arrivalSpeed="20.28" duration="66.00" routeLength="871.98" waitingTime="0.00" waitingCount="0" stopTime="0.00" timeLoss="18.91" rerouteNo="0" devices="tripinfo_33" vType="DEFAULT_VEHTYPE" speedFactor="1.17" vaporized=""/>
    <tripinfo id="25" depart="40.00" departLane="643466772_0" departPos="5.10" departSpeed="4.00" departDelay="25.00" arrival="92.00" arrivalLane="-907577402_0" arrivalPos="52.95" arrivalSpeed="11.69" duration="52.00" routeLength="555.22" waitingTime="0.00" waitingCount="0" stopTime="0.00" timeLoss="15.72" rerouteNo="0" devices="tripinfo_25" vType="DEFAULT_VEHTYPE" speedFactor="0.87" vaporized=""/>
    <tripinfo id="53" depart="33.00" departLane="-328833896#1_0" departPos="5.10" departSpeed="15.22" departDelay="1.20" arrival="94.00" arrivalLane="643445231#0_0" arrivalPos="50.56" arrivalSpeed="8.27" duration="61.00" routeLength="522.10" waitingTime="5.00" waitingCount="1" stopTime="0.00" timeLoss="27.03" rerouteNo="0" devices="tripinfo_53" vType="DEFAULT_VEHTYPE" speedFactor="1.10" vaporized=""/>
    <tripinfo id="39" depart="24.00" departLane="-1117321962_0" departPos="5.10" departSpeed="12.51" departDelay="0.60" arrival="95.00" arrivalLane="-329167772_0" arrivalPos="87.38" arrivalSpeed="12.46" duration="71.00" routeLength="829.52" waitingTime="0.00" waitingCount="0" stopTime="0.00" timeLoss="17.94" rerouteNo="0" devices="tripinfo_39" vType="DEFAULT_VEHTYPE" speedFactor="0.90" vaporized=""/>
    <tripinfo id="38" depart="25.00" departLane="328833896#1_0" departPos="5.10" departSpeed="9.12" departDelay="2.20" arrival="97.00" arrivalLane="118454606_0" arrivalPos="0.20" arrivalSpeed="22.13" duration="72.00" routeLength="577.18" waitingTime="15.00" waitingCount="1" stopTime="0.00" timeLoss="40.58" rerouteNo="0" devices="tripinfo_38" vType="DEFAULT_VEHTYPE" speedFactor="1.10" vaporized=""/>
    <tripinfo id="62" depart="38.00" departLane="299981295#0_2" departPos="5.10" departSpeed="27.78" departDelay="0.80" arrival="98.00" arrivalLane="-118454616_0" arrivalPos="1.16" arrivalSpeed="14.73" duration="60.00" routeLength="917.52" waitingTime="5.00" waitingCount="1" stopTime="0.00" timeLoss="25.63" rerouteNo="0" devices="tripinfo_62" vType="DEFAULT_VEHTYPE" speedFactor="1.02" vaporized=""/>
    <tripinfo id="118" depart="71.00" departLane="-397562860#4_0" departPos="5.10" departSpeed="13.77" departDelay="0.20" arrival="102.00" arrivalLane="397562860#0_0" arrivalPos="63.66" arrivalSpeed="12.57" duration="31.00" routeLength="354.34" waitingTime="0.00" waitingCount="0" stopTime="0.00" timeLoss="3.74" rerouteNo="0" devices="tripinfo_118" vType="DEFAULT_VEHTYPE" speedFactor="0.99" vaporized=""/>
    <tripinfo id="153" depart="92.00" departLane="1161228580_0" departPos="5.10" departSpeed="12.67" departDelay="0.20" arrival="103.00" arrivalLane="30645392#1_0" arrivalPos="20.91" arrivalSpeed="10.72" duration="11.00" routeLength="88.75" waitingTime="0.00" waitingCount="0" stopTime="0.00" timeLoss="2.98" rerouteNo="0" devices="tripinfo_153" vType="DEFAULT_VEHTYPE" speedFactor="0.93" vaporized=""/>
    <tripinfo id="35" depart="44.00" departLane="643466772_0" departPos="5.10" departSpeed="4.00" departDelay="23.00" arrival="105.00" arrivalLane="397562860#2_0" arrivalPos="33.19" arrivalSpeed="13.88" duration="61.00" routeLength="664.88" waitingTime="2.00" waitingCount="1" stopTime="0.00" timeLoss="23.16" rerouteNo="0" devices="tripinfo_35" vType="DEFAULT_VEHTYPE" speedFactor="1.02" vaporized=""/>
    <tripinfo id="36" depart="22.00" departLane="30619423_0" departPos="5.10" departSpeed="13.52" departDelay="0.40" arrival="107.00" arrivalLane="-30619634#1_0" arrivalPos="307.52" arrivalSpeed="7.85" duration="85.00" routeLength="667.01" waitingTime="0.00" waitingCount="0" stopTime="0.00" timeLoss="10.19" rerouteNo="0" devices="tripinfo_36" vType="DEFAULT_VEHTYPE" speedFactor="0.97" vaporized=""/>
    <tripinfo id="54" depart="35.00" departLane="738532262#0_0" departPos="5.10" departSpeed="15.20" departDelay="2.60" arrival="107.00" arrivalLane="1524206042_0" arrivalPos="105.82" arrivalSpeed="12.67" duration="72.00" routeLength="811.65" waitingTime="0.00" waitingCount="0" stopTime="0.00" timeLoss="24.59" rerouteNo="0" devices="tripinfo_54" vType="DEFAULT_VEHTYPE" speedFactor="1.00" vaporized=""/>
    <tripinfo id="19" depart="12.00" departLane="299981295#0_0" departPos="5.10" departSpeed="27.78" departDelay="0.60" arrival="113.00" arrivalLane="30619634#2_0" arrivalPos="56.71" arrivalSpeed="4.38" duration="101.00" routeLength="690.76" waitingTime="47.00" waitingCount="1" stopTime="0.00" timeLoss="63.99" rerouteNo="0" devices="tripinfo_19" vType="DEFAULT_VEHTYPE" speedFactor="1.16" vaporized=""/>
    <tripinfo id="146" depart="90.00" departLane="-397562860#0_0" departPos="5.10" departSpeed="12.32" departDelay="2.40" arrival="114.00" arrivalLane="-329167772_0" arrivalPos="87.38" arrivalSpeed="11.05" duration="24.00" routeLength="200.76" waitingTime="0.00" waitingCount="0" stopTime="0.00" timeLoss="6.67" rerouteNo="0" devices="tripinfo_146" vType="DEFAULT_VEHTYPE" speedFactor="0.89" vaporized=""/>
    <tripinfo id="154" depart="93.00" departLane="299981295#0_0" departPos="5.10" departSpeed="27.78" departDelay="0.60" arrival="116.00" arrivalLane="299981295#1_0" arrivalPos="330.88" arrivalSpeed="28.95" duration="23.00" routeLength="653.21" waitingTime="0.00" waitingCount="0" stopTime="0.00" timeLoss="0.45" rerouteNo="0" devices="tripinfo_154" vType="DEFAULT_VEHTYPE" speedFactor="1.06" vaporized=""/>
    <tripinfo id="15" depart="9.00" departLane="30619424#1_0" departPos="5.10" departSpeed="12.87" departDelay="0.00" arrival="118.00" arrivalLane="-397562860#0_0" arrivalPos="63.66" arrivalSpeed="12.40" duration="109.00" routeLength="1067.45" waitingTime="19.00" waitingCount="2" stopTime="0.00" timeLoss="46.61" rerouteNo="0" devices="tripinfo_15" vType="DEFAULT_VEHTYPE" speedFactor="0.93" vaporized=""/>
    <tripinfo id="163" depart="98.00" departLane="907577402_0" departPos="5.10" departSpeed="13.89" departDelay="0.20" arrival="120.00" arrivalLane="-329167779#1_0" arrivalPos="64.43" arrivalSpeed="14.92" duration="22.00" routeLength="197.88" waitingTime="0.00" waitingCount="0" stopTime="0.00" timeLoss="8.16" rerouteNo="0" devices="tripinfo_163" vType="DEFAULT_VEHTYPE" speedFactor="1.13" vaporized=""/>
    <tripinfo id="100" depart="62.00" departLane="397562860#0_0" departPos="5.10" departSpeed="11.05" departDelay="2.00" arrival="121.00" arrivalLane="769567696_0" arrivalPos="63.97" arrivalSpeed="14.52" duration="59.00" routeLength="317.14" waitingTime="19.00" waitingCount="1" stopTime="0.00" timeLoss="35.05" rerouteNo="0" devices="tripinfo_100" vType="DEFAULT_VEHTYPE" speedFactor="1.06" vaporized=""/>
    <tripinfo id="44" depart="27.00" departLane="-199416076#1_0" departPos="5.10" departSpeed="12.62" departDelay="0.60" arrival="122.00" arrivalLane="318042913_0" arrivalPos="1300.11" arrivalSpeed="28.11" duration="95.00" routeLength="2024.09" waitingTime="0.00" waitingCount="0" stopTime="0.00" timeLoss="11.50" rerouteNo="0" devices="tripinfo_44" vType="DEFAULT_VEHTYPE" speedFactor="1.04" vaporized=""/>
    <tripinfo id="74" depart="45.00" departLane="30619422#1_0" departPos="5.10" departSpeed="12.95" departDelay="0.60" arrival="123.00" arrivalLane="30619424#1_0" arrivalPos="99.58" arrivalSpeed="7.09" duration="78.00" routeLength="649.02" waitingTime="6.00" waitingCount="2" stopTime="0.00" timeLoss="25.21" rerouteNo="0" devices="tripinfo_74" vType="DEFAULT_VEHTYPE" speedFactor="0.96" vaporized=""/>
    <tripinfo id="101" depart="61.00" departLane="329167737_0" departPos="5.10" departSpeed="13.29" departDelay="0.40" arrival="123.00" arrivalLane="397562860#3_0" arrivalPos="114.18" arrivalSpeed="12.77" duration="62.00" routeLength="733.08" waitingTime="0.00" waitingCount="0" stopTime="0.00" timeLoss="5.22" rerouteNo="0" devices="tripinfo_101" vType="DEFAULT_VEHTYPE" speedFactor="0.96" vaporized=""/>
    <tripinfo id="66" depart="40.00" departLane="-329167779#1_0" departPos="5.10" departSpeed="12.60" departDelay="0.40" arrival="124.00" arrivalLane="327743346_0" arrivalPos="229.59" arrivalSpeed="24.45" duration="84.00" routeLength="660.42" waitingTime="23.00" waitingCount="1" stopTime="0.00" timeLoss="37.41" rerouteNo="0" devices="tripinfo_66" vType="DEFAULT_VEHTYPE" speedFactor="0.91" vaporized=""/>
    <tripinfo id="12" depart="8.00" departLane="-328833896#1_0" departPos="5.10" departSpeed="13.89" departDelay="0.80" arrival="126.00" arrivalLane="-328833896#2_0" arrivalPos="76.34" arrivalSpeed="5.26" duration="118.00" routeLength="632.98" waitingTime="53.00" waitingCount="1" stopTime="0.00" timeLoss="72.24" rerouteNo="0" devices="tripinfo_12" vType="DEFAULT_VEHTYPE" speedFactor="1.05" vaporized=""/>
    <tripinfo id="18" depart="11.00" departLane="-30619634#4_0" departPos="5.10" departSpeed="7.80" departDelay="0.20" arrival="130.00" arrivalLane="-397562860#1_0" arrivalPos="36.89" arrivalSpeed="12.20" duration="119.00" routeLength="1404.64" waitingTime="0.00" waitingCount="0" stopTime="0.00" timeLoss="30.46" rerouteNo="0" devices="tripinfo_18" vType="DEFAULT_VEHTYPE" speedFactor="0.94" vaporized=""/>
    <tripinfo id="51" depart="31.00" departLane="-328833896#1_0" departPos="5.10" departSpeed="13.89" departDelay="0.40" arrival="132.00" arrivalLane="-30645384_0" arrivalPos="581.77" arrivalSpeed="15.97" duration="101.00" routeLength="1118.49" waitingTime="7.00" waitingCount="1" stopTime="0.00" timeLoss="31.24" rerouteNo="0" devices="tripinfo_51" vType="DEFAULT_VEHTYPE" speedFactor="1.17" vaporized=""/>
    <tripinfo id="183" depart="114.00" departLane="-397562860#0_0" departPos="5.10" departSpeed="9.34" departDelay="4.20" arrival="132.00" arrivalLane="397562860#1_0" arrivalPos="36.89" arrivalSpeed="14.50" duration="18.00" routeLength="178.11" waitingTime="0.00" waitingCount="0" stopTime="0.00" timeLoss="5.23" rerouteNo="0" devices="tripinfo_183" vType="DEFAULT_VEHTYPE" speedFactor="1.08" vaporized=""/>
    <tripinfo id="22" depart="14.00" departLane="-30645392#2_0" departPos="5.10" departSpeed="9.76" departDelay="0.80" arrival="135.00" arrivalLane="738532262#0_0" arrivalPos="45.48" arrivalSpeed="14.51" duration="121.00" routeLength="444.95" waitingTime="57.00" waitingCount="3" stopTime="0.00" timeLoss="91.48" rerouteNo="0" devices="tripinfo_22" vType="DEFAULT_VEHTYPE" speedFactor="0.97" vaporized=""/>
    <tripinfo id="93" depart="56.00" departLane="1161228580_0" departPos="5.10" departSpeed="12.80" departDelay="0.20" arrival="136.00" arrivalLane="-1127825145_0" arrivalPos="144.31" arrivalSpeed="6.29" duration="80.00" routeLength="325.59" waitingTime="22.00" waitingCount="2" stopTime="0.00" timeLoss="52.59" rerouteNo="0" devices="tripinfo_93" vType="DEFAULT_VEHTYPE" speedFactor="0.92" vaporized=""/>
    <tripinfo id="31" depart="19.00" departLane="-199416076#1_0" departPos="5.10" departSpeed="12.98" departDelay="0.40" arrival="138.00" arrivalLane="-397562860#2_0" arrivalPos="33.19" arrivalSpeed="12.86" duration="119.00" routeLength="1400.64" waitingTime="0.00" waitingCount="0" stopTime="0.00" timeLoss="48.54" rerouteNo="0" devices="tripinfo_31" vType="DEFAULT_VEHTYPE" speedFactor="1.15" vaporized=""/>
    <tripinfo id="90" depart="54.00" departLane="-1117321962_0" departPos="5.10" departSpeed="13.89" departDelay="0.00" arrival="140.00" arrivalLane="318042913_0" arrivalPos="1300.11" arrivalSpeed="27.66" duration="86.00" routeLength="1596.91" waitingTime="7.00" waitingCount="1" stopTime="0.00" timeLoss="19.37" rerouteNo="0" devices="tripinfo_90" vType="DEFAULT_VEHTYPE" speedFactor="1.02" vaporized=""/>
    <tripinfo id="114" depart="69.00" departLane="-755952845#0_0" departPos="5.10" departSpeed="13.89" departDelay="0.60" arrival="140.00" arrivalLane="1524206042_0" arrivalPos="105.82" arrivalSpeed="14.78" duration="71.00" routeLength="442.19" waitingTime="29.00" waitingCount="1" stopTime="0.00" timeLoss="40.55" rerouteNo="0" devices="tripinfo_114" vType="DEFAULT_VEHTYPE" speedFactor="1.10" vaporized=""/>
    <tripinfo id="186" depart="112.00" departLane="-30645392#2_0" departPos="5.10" departSpeed="9.76" departDelay="0.40" arrival="142.00" arrivalLane="328833896#1_0" arrivalPos="82.02" arrivalSpeed="14.93" duration="30.00" routeLength="219.68" waitingTime="1.00" waitingCount="1" stopTime="0.00" timeLoss="12.84" rerouteNo="0" devices="tripinfo_186" vType="DEFAULT_VEHTYPE" speedFactor="1.08" vaporized=""/>
    <tripinfo id="231" depart="139.00" departLane="738532262#2_0" departPos="5.10" departSpeed="27.78" departDelay="0.40" arrival="142.00" arrivalLane="1130672333_0" arrivalPos="36.83" arrivalSpeed="31.38" duration="3.00" routeLength="89.87" waitingTime="0.00" waitingCount="0" stopTime="0.00" timeLoss="0.09" rerouteNo="0" devices="tripinfo_231" vType="DEFAULT_VEHTYPE" speedFactor="1.14" vaporized=""/>
    <tripinfo id="172" depart="104.00" departLane="30619634#5_0" departPos="5.10" departSpeed="7.44" departDelay="0.80" arrival="143.00" arrivalLane="30619422#0_0" arrivalPos="231.26" arrivalSpeed="11.12" duration="39.00" routeLength="357.39" waitingTime="0.00" waitingCount="0" stopTime="0.00" timeLoss="3.41" rerouteNo="0" devices="tripinfo_172" vType="DEFAULT_VEHTYPE" speedFactor="0.89" vaporized=""/>
    <tripinfo id="26" depart="16.00" departLane="299981295#1_2" departPos="5.10" departSpeed="17.71" departDelay="0.40" arrival="144.00" arrivalLane="-328833896#0_0" arrivalPos="76.96" arrivalSpeed="11.93" duration="128.00" routeLength="910.35" waitingTime="48.00" waitingCount="1" stopTime="0.00" timeLoss="73.31" rerouteNo="0" devices="tripinfo_26" vType="DEFAULT_VEHTYPE" speedFactor="0.92" vaporized=""/>
    <tripinfo id="207" depart="125.00" departLane="397562860#0_0" departPos="5.10" departSpeed="9.89" departDelay="0.80" arrival="150.00" arrivalLane="1524206042_0" arrivalPos="105.82" arrivalSpeed="13.04" duration="25.00" routeLength="252.04" waitingTime="0.00" waitingCount="0" stopTime="0.00" timeLoss="5.18" rerouteNo="0" devices="tripinfo_207" vType="DEFAULT_VEHTYPE" speedFactor="0.97" vaporized=""/>
    <tripinfo id="73" depart="44.00" departLane="-30619422#0_0" departPos="5.10" departSpeed="12.03" departDelay="0.20" arrival="156.00" arrivalLane="-30619634#4_0" arrivalPos="26.86" arrivalSpeed="8.36" duration="112.00" routeLength="388.39" waitingTime="53.00" waitingCount="3" stopTime="0.00" timeLoss="77.27" rerouteNo="0" devices="tripinfo_73" vType="DEFAULT_VEHTYPE" speedFactor="1.06" vaporized=""/>
    <tripinfo id="60" depart="37.00" departLane="1161228580_0" departPos="5.10" departSpeed="15.04" departDelay="1.00" arrival="159.00" arrivalLane="-328833896#2_0" arrivalPos="76.34" arrivalSpeed="6.31" duration="122.00" routeLength="558.65" waitingTime="32.00" waitingCount="5" stopTime="0.00" timeLoss="81.87" rerouteNo="0" devices="tripinfo_60" vType="DEFAULT_VEHTYPE" speedFactor="1.08" vaporized=""/>
    <tripinfo id="192" depart="116.00" departLane="30619634#5_0" departPos="5.10" departSpeed="8.33" departDelay="0.80" arrival="159.00" arrivalLane="30619423_0" arrivalPos="166.78" arrivalSpeed="4.79" duration="43.00" routeLength="399.06" waitingTime="0.00" waitingCount="0" stopTime="0.00" timeLoss="12.63" rerouteNo="0" devices="tripinfo_192" vType="DEFAULT_VEHTYPE" speedFactor="1.10" vaporized=""/>
    <tripinfo id="254" depart="154.00" departLane="397562860#1_0" departPos="5.10" departSpeed="12.21" departDelay="1.60" arrival="161.00" arrivalLane="397562860#2_0" arrivalPos="33.19" arrivalSpeed="12.16" duration="7.00" routeLength="79.37" waitingTime="0.00" waitingCount="0" stopTime="0.00" timeLoss="0.39" rerouteNo="0" devices="tripinfo_254" vType="DEFAULT_VEHTYPE" speedFactor="0.88" vaporized=""/>
    <tripinfo id="215" depart="129.00" departLane="1168359536_0" departPos="5.10" departSpeed="27.78" departDelay="0.00" arrival="162.00" arrivalLane="397562860#1_0" arrivalPos="36.89" arrivalSpeed="14.56" duration="33.00" routeLength="560.61" waitingTime="0.00" waitingCount="0" stopTime="0.00" timeLoss="5.09" rerouteNo="0" devices="tripinfo_215" vType="DEFAULT_VEHTYPE" speedFactor="1.09" vaporized=""/>