<?xml version="1.0" encoding="UTF-8"?>

<!-- generated on 2026-06-28T01:19:51.655378+00:00 by Eclipse SUMO sumo 1.27.1
<sumoConfiguration xmlns:xsi="http://www.w3.org/2001/XMLSchema-instance" xsi:noNamespaceSchemaLocation="http://sumo.dlr.de/xsd/sumoConfiguration.xsd">

    <input>
        <net-file value="osm.net.xml"/>
        <route-files value="routes_moyen.rou.xml"/>
    </input>

    <output>
        <tripinfo-output value="baseline_tripinfo_moyen.xml"/>
        <statistic-output value="baseline_stats_moyen.xml"/>
    </output>

    <time>
        <begin value="0"/>
        <end value="3600"/>
    </time>

    <processing>
        <ignore-route-errors value="true"/>
    </processing>

    <report>
        <no-warnings value="true"/>
        <duration-log.statistics value="true"/>
        <no-step-log value="true"/>
    </report>

</sumoConfiguration>
-->

<tripinfos xmlns:xsi="http://www.w3.org/2001/XMLSchema-instance" xsi:noNamespaceSchemaLocation="http://sumo.dlr.de/xsd/tripinfo_file.xsd">
    <tripinfo id="1" depart="2.00" departLane="1161228580_0" departPos="5.10" departSpeed="13.03" departDelay="0.80" arrival="17.00" arrivalLane="-1161228580_0" arrivalPos="58.50" arrivalSpeed="11.78" duration="15.00" routeLength="116.57" waitingTime="0.00" waitingCount="0" stopTime="0.00" timeLoss="4.29" rerouteNo="0" devices="tripinfo_1" vType="DEFAULT_VEHTYPE" speedFactor="0.94" vaporized=""/>
    <tripinfo id="6" depart="8.00" departLane="755952845#1_0" departPos="5.10" departSpeed="13.89" departDelay="0.80" arrival="35.00" arrivalLane="-329167779#0_0" arrivalPos="130.12" arrivalSpeed="14.17" duration="27.00" routeLength="328.05" waitingTime="0.00" waitingCount="0" stopTime="0.00" timeLoss="3.16" rerouteNo="0" devices="tripinfo_6" vType="DEFAULT_VEHTYPE" speedFactor="1.05" vaporized=""/>
    <tripinfo id="10" depart="13.00" departLane="397562860#0_0" departPos="5.10" departSpeed="13.91" departDelay="1.00" arrival="37.00" arrivalLane="1524206042_0" arrivalPos="105.82" arrivalSpeed="14.24" duration="24.00" routeLength="252.04" waitingTime="0.00" waitingCount="0" stopTime="0.00" timeLoss="5.57" rerouteNo="0" devices="tripinfo_10" vType="DEFAULT_VEHTYPE" speedFactor="1.09" vaporized=""/>
    <tripinfo id="0" depart="0.00" departLane="30619424#1_0" departPos="5.10" departSpeed="13.89" departDelay="0.00" arrival="40.00" arrivalLane="-1137542845_0" arrivalPos="0.55" arrivalSpeed="7.48" duration="40.00" routeLength="584.07" waitingTime="0.00" waitingCount="0" stopTime="0.00" timeLoss="13.61" rerouteNo="0" devices="tripinfo_0" vType="DEFAULT_VEHTYPE" speedFactor="1.06" vaporized=""/>
    <tripinfo id="17" depart="21.00" departLane="-30619634#5_0" departPos="5.10" departSpeed="7.84" departDelay="0.60" arrival="48.00" arrivalLane="30619634#6_0" arrivalPos="50.90" arrivalSpeed="7.04" duration="27.00" routeLength="168.35" waitingTime="0.00" waitingCount="0" stopTime="0.00" timeLoss="4.37" rerouteNo="0" devices="tripinfo_17" vType="DEFAULT_VEHTYPE" speedFactor="0.94" vaporized=""/>
    <tripinfo id="7" depart="9.00" departLane="-30619422#1_0" departPos="5.10" departSpeed="12.31" departDelay="0.60" arrival="49.00" arrivalLane="-30619422#0_0" arrivalPos="226.17" arrivalSpeed="12.01" duration="40.00" routeLength="463.02" waitingTime="0.00" waitingCount="0" stopTime="0.00" timeLoss="1.74" rerouteNo="0" devices="tripinfo_7" vType="DEFAULT_VEHTYPE" speedFactor="0.89" vaporized=""/>
    <tripinfo id="21" depart="26.00" departLane="-328833896#1_0" departPos="5.10" departSpeed="13.89" departDelay="0.80" arrival="55.00" arrivalLane="-1161228580_0" arrivalPos="58.50" arrivalSpeed="14.03" duration="29.00" routeLength="267.49" waitingTime="0.00" waitingCount="0" stopTime="0.00" timeLoss="8.16" rerouteNo="0" devices="tripinfo_21" vType="DEFAULT_VEHTYPE" speedFactor="1.01" vaporized=""/>
    <tripinfo id="45" depart="54.00" departLane="118454614#0_0" departPos="5.10" departSpeed="22.22" departDelay="0.00" arrival="58.00" arrivalLane="118454614#0_0" arrivalPos="76.26" arrivalSpeed="22.93" duration="4.00" routeLength="71.16" waitingTime="0.00" waitingCount="0" stopTime="0.00" timeLoss="0.38" rerouteNo="0" devices="tripinfo_45" vType="DEFAULT_VEHTYPE" speedFactor="1.09" vaporized=""/>
    <tripinfo id="9" depart="11.00" departLane="-755952840_0" departPos="5.10" departSpeed="23.80" departDelay="0.20" arrival="59.00" arrivalLane="118454614#0_1" arrivalPos="76.26" arrivalSpeed="17.01" duration="48.00" routeLength="294.97" waitingTime="16.00" waitingCount="1" stopTime="0.00" timeLoss="31.51" rerouteNo="0" devices="tripinfo_9" vType="DEFAULT_VEHTYPE" speedFactor="0.86" vaporized=""/>
    <tripinfo id="32" depart="39.00" departLane="769567696_0" departPos="5.10" departSpeed="13.89" departDelay="0.60" arrival="60.00" arrivalLane="397562860#2_0" arrivalPos="33.19" arrivalSpeed="12.77" duration="21.00" routeLength="278.83" waitingTime="0.00" waitingCount="0" stopTime="0.00" timeLoss="0.89" rerouteNo="0" devices="tripinfo_32" vType="DEFAULT_VEHTYPE" speedFactor="1.01" vaporized=""/>
    <tripinfo id="4" depart="5.00" departLane="-327793028_0" departPos="5.10" departSpeed="13.95" departDelay="0.20" arrival="61.00" arrivalLane="199416076#1_0" arrivalPos="250.70" arrivalSpeed="13.97" duration="56.00" routeLength="627.59" waitingTime="0.00" waitingCount="0" stopTime="0.00" timeLoss="8.10" rerouteNo="0" devices="tripinfo_4" vType="DEFAULT_VEHTYPE" speedFactor="1.03" vaporized=""/>
    <tripinfo id="30" depart="36.00" departLane="328833896#2_0" departPos="5.10" departSpeed="13.51" departDelay="0.00" arrival="61.00" arrivalLane="-755952840_0" arrivalPos="24.55" arrivalSpeed="17.61" duration="25.00" routeLength="273.76" waitingTime="0.00" waitingCount="0" stopTime="0.00" timeLoss="9.11" rerouteNo="0" devices="tripinfo_30" vType="DEFAULT_VEHTYPE" speedFactor="1.18" vaporized=""/>
    <tripinfo id="19" depart="23.00" departLane="299981295#0_0" departPos="5.10" departSpeed="27.78" departDelay="0.20" arrival="68.00" arrivalLane="30619634#2_0" arrivalPos="56.71" arrivalSpeed="8.83" duration="45.00" routeLength="690.76" waitingTime="0.00" waitingCount="0" stopTime="0.00" timeLoss="7.43" rerouteNo="0" devices="tripinfo_19" vType="DEFAULT_VEHTYPE" speedFactor="1.16" vaporized=""/>
    <tripinfo id="20" depart="24.00" departLane="329167779#0_0" departPos="5.10" departSpeed="13.89" departDelay="0.00" arrival="71.00" arrivalLane="327743346_0" arrivalPos="229.59" arrivalSpeed="27.96" duration="47.00" routeLength="633.76" waitingTime="0.00" waitingCount="0" stopTime="0.00" timeLoss="8.77" rerouteNo="0" devices="tripinfo_20" vType="DEFAULT_VEHTYPE" speedFactor="1.02" vaporized=""/>
    <tripinfo id="42" depart="51.00" departLane="-397562860#4_0" departPos="5.10" departSpeed="13.89" departDelay="0.60" arrival="73.00" arrivalLane="-1524206042_0" arrivalPos="110.76" arrivalSpeed="14.61" duration="22.00" routeLength="276.76" waitingTime="0.00" waitingCount="0" stopTime="0.00" timeLoss="2.58" rerouteNo="0" devices="tripinfo_42" vType="DEFAULT_VEHTYPE" speedFactor="1.09" vaporized=""/>
    <tripinfo id="49" depart="59.00" departLane="1168359536_0" departPos="5.10" departSpeed="23.46" departDelay="0.20" arrival="73.00" arrivalLane="1168359536_0" arrivalPos="320.24" arrivalSpeed="23.00" duration="14.00" routeLength="315.14" waitingTime="0.00" waitingCount="0" stopTime="0.00" timeLoss="0.42" rerouteNo="0" devices="tripinfo_49" vType="DEFAULT_VEHTYPE" speedFactor="0.85" vaporized=""/>
    <tripinfo id="41" depart="50.00" departLane="397562860#1_0" departPos="5.10" departSpeed="13.29" departDelay="0.80" arrival="74.00" arrivalLane="329167779#1_0" arrivalPos="64.42" arrivalSpeed="12.02" duration="24.00" routeLength="235.65" waitingTime="0.00" waitingCount="0" stopTime="0.00" timeLoss="3.85" rerouteNo="0" devices="tripinfo_41" vType="DEFAULT_VEHTYPE" speedFactor="0.96" vaporized=""/>
    <tripinfo id="12" depart="15.00" departLane="-328833896#1_0" departPos="5.10" departSpeed="13.89" departDelay="0.60" arrival="77.00" arrivalLane="-328833896#2_0" arrivalPos="76.34" arrivalSpeed="13.31" duration="62.00" routeLength="632.98" waitingTime="0.00" waitingCount="0" stopTime="0.00" timeLoss="15.31" rerouteNo="0" devices="tripinfo_12" vType="DEFAULT_VEHTYPE" speedFactor="1.05" vaporized=""/>
    <tripinfo id="22" depart="27.00" departLane="-30645392#2_0" departPos="5.10" departSpeed="9.76" departDelay="0.60" arrival="78.00" arrivalLane="738532262#0_0" arrivalPos="45.48" arrivalSpeed="10.45" duration="51.00" routeLength="444.95" waitingTime="0.00" waitingCount="0" stopTime="0.00" timeLoss="21.53" rerouteNo="0" devices="tripinfo_22" vType="DEFAULT_VEHTYPE" speedFactor="0.97" vaporized=""/>
    <tripinfo id="40" depart="51.00" departLane="-1127825145_0" departPos="5.10" departSpeed="12.97" departDelay="3.00" arrival="78.00" arrivalLane="643466772_0" arrivalPos="9.10" arrivalSpeed="12.05" duration="27.00" routeLength="283.84" waitingTime="0.00" waitingCount="0" stopTime="0.00" timeLoss="11.54" rerouteNo="0" devices="tripinfo_40" vType="DEFAULT_VEHTYPE" speedFactor="1.03" vaporized=""/>
    <tripinfo id="46" depart="56.00" departLane="-329167779#1_0" departPos="5.10" departSpeed="13.85" departDelay="0.80" arrival="78.00" arrivalLane="397562860#2_0" arrivalPos="33.19" arrivalSpeed="13.04" duration="22.00" routeLength="221.64" waitingTime="0.00" waitingCount="0" stopTime="0.00" timeLoss="4.52" rerouteNo="0" devices="tripinfo_46" vType="DEFAULT_VEHTYPE" speedFactor="1.00" vaporized=""/>
    <tripinfo id="2" depart="3.00" departLane="-327793028_0" departPos="5.10" departSpeed="13.89" departDelay="0.60" arrival="86.00" arrivalLane="1130672333_0" arrivalPos="36.83" arrivalSpeed="17.33" duration="83.00" routeLength="1021.12" waitingTime="0.00" waitingCount="0" stopTime="0.00" timeLoss="25.57" rerouteNo="0" devices="tripinfo_2" vType="DEFAULT_VEHTYPE" speedFactor="1.01" vaporized=""/>
    <tripinfo id="25" depart="39.00" departLane="643466772_0" departPos="5.10" departSpeed="4.00" departDelay="9.00" arrival="87.00" arrivalLane="-907577402_0" arrivalPos="52.95" arrivalSpeed="11.69" duration="48.00" routeLength="555.22" waitingTime="0.00" waitingCount="0" stopTime="0.00" timeLoss="11.44" rerouteNo="0" devices="tripinfo_25" vType="DEFAULT_VEHTYPE" speedFactor="0.87" vaporized=""/>
    <tripinfo id="23" depart="28.00" departLane="397562860#1_0" departPos="5.10" departSpeed="12.36" departDelay="0.40" arrival="90.00" arrivalLane="-329167737_0" arrivalPos="609.72" arrivalSpeed="11.98" duration="62.00" routeLength="703.48" waitingTime="0.00" waitingCount="0" stopTime="0.00" timeLoss="4.00" rerouteNo="0" devices="tripinfo_23" vType="DEFAULT_VEHTYPE" speedFactor="0.89" vaporized=""/>
    <tripinfo id="38" depart="46.00" departLane="328833896#1_0" departPos="5.10" departSpeed="13.89" departDelay="0.40" arrival="90.00" arrivalLane="118454606_0" arrivalPos="0.20" arrivalSpeed="23.59" duration="44.00" routeLength="577.18" waitingTime="0.00" waitingCount="0" stopTime="0.00" timeLoss="12.76" rerouteNo="0" devices="tripinfo_38" vType="DEFAULT_VEHTYPE" speedFactor="1.10" vaporized=""/>
    <tripinfo id="29" depart="35.00" departLane="-30619423_0" departPos="5.10" departSpeed="12.94" departDelay="0.20" arrival="95.00" arrivalLane="30619422#0_0" arrivalPos="231.26" arrivalSpeed="11.86" duration="60.00" routeLength="632.80" waitingTime="0.00" waitingCount="0" stopTime="0.00" timeLoss="8.35" rerouteNo="0" devices="tripinfo_29" vType="DEFAULT_VEHTYPE" speedFactor="0.93" vaporized=""/>
    <tripinfo id="35" depart="42.00" departLane="643466772_0" departPos="5.10" departSpeed="4.00" departDelay="0.00" arrival="96.00" arrivalLane="397562860#2_0" arrivalPos="33.19" arrivalSpeed="13.96" duration="54.00" routeLength="664.88" waitingTime="0.00" waitingCount="0" stopTime="0.00" timeLoss="16.59" rerouteNo="0" devices="tripinfo_35" vType="DEFAULT_VEHTYPE" speedFactor="1.02" vaporized=""/>
    <tripinfo id="47" depart="57.00" departLane="199416076#1_0" departPos="5.10" departSpeed="12.51" departDelay="0.60" arrival="104.00" arrivalLane="30619634#6_0" arrivalPos="50.90" arrivalSpeed="7.15" duration="47.00" routeLength="427.60" waitingTime="0.00" waitingCount="0" stopTime="0.00" timeLoss="3.37" rerouteNo="0" devices="tripinfo_47" vType="DEFAULT_VEHTYPE" speedFactor="0.90" vaporized=""/>
    <tripinfo id="33" depart="40.00" departLane="30619634#4_0" departPos="5.10" departSpeed="8.33" departDelay="0.40" arrival="107.00" arrivalLane="118454607_0" arrivalPos="81.04" arrivalSpeed="12.04" duration="67.00" routeLength="871.98" waitingTime="0.00" waitingCount="0" stopTime="0.00" timeLoss="21.01" rerouteNo="0" devices="tripinfo_33" vType="DEFAULT_VEHTYPE" speedFactor="1.17" vaporized=""/>
    <tripinfo id="65" depart="78.00" departLane="-755952840_0" departPos="5.10" departSpeed="20.99" departDelay="0.00" arrival="114.00" arrivalLane="769567696_0" arrivalPos="63.97" arrivalSpeed="12.17" duration="36.00" routeLength="486.30" waitingTime="0.00" waitingCount="0" stopTime="0.00" timeLoss="10.62" rerouteNo="0" devices="tripinfo_65" vType="DEFAULT_VEHTYPE" speedFactor="0.88" vaporized=""/>
    <tripinfo id="81" depart="98.00" departLane="397562860#1_0" departPos="5.10" departSpeed="13.86" departDelay="0.80" arrival="114.00" arrivalLane="397562860#3_0" arrivalPos="114.18" arrivalSpeed="12.99" duration="16.00" routeLength="208.15" waitingTime="0.00" waitingCount="0" stopTime="0.00" timeLoss="0.78" rerouteNo="0" devices="tripinfo_81" vType="DEFAULT_VEHTYPE" speedFactor="1.00" vaporized=""/>
    <tripinfo id="3" depart="4.00" departLane="30619634#0_0" departPos="5.10" departSpeed="8.33" departDelay="0.40" arrival="116.00" arrivalLane="118454614#0_0" arrivalPos="76.26" arrivalSpeed="8.78" duration="112.00" routeLength="1134.59" waitingTime="0.00" waitingCount="0" stopTime="0.00" timeLoss="36.13" rerouteNo="0" devices="tripinfo_3" vType="DEFAULT_VEHTYPE" speedFactor="1.08" vaporized=""/>
    <tripinfo id="15" depart="18.00" departLane="30619424#1_0" departPos="5.10" departSpeed="12.87" departDelay="0.00" arrival="116.00" arrivalLane="-397562860#0_0" arrivalPos="63.66" arrivalSpeed="11.95" duration="98.00" routeLength="1067.45" waitingTime="10.00" waitingCount="2" stopTime="0.00" timeLoss="35.56" rerouteNo="0" devices="tripinfo_15" vType="DEFAULT_VEHTYPE" speedFactor="0.93" vaporized=""/>
    <tripinfo id="69" depart="83.00" departLane="769567696_0" departPos="5.10" departSpeed="13.89" departDelay="0.20" arrival="116.00" arrivalLane="1524206042_0" arrivalPos="105.82" arrivalSpeed="14.14" duration="33.00" routeLength="373.51" waitingTime="0.00" waitingCount="0" stopTime="0.00" timeLoss="5.50" rerouteNo="0" devices="tripinfo_69" vType="DEFAULT_VEHTYPE" speedFactor="1.02" vaporized=""/>
    <tripinfo id="26" depart="32.00" departLane="299981295#1_2" departPos="5.10" departSpeed="25.48" departDelay="0.80" arrival="119.00" arrivalLane="-328833896#0_0" arrivalPos="76.96" arrivalSpeed="12.42" duration="87.00" routeLength="910.35" waitingTime="5.00" waitingCount="1" stopTime="0.00" timeLoss="31.51" rerouteNo="0" devices="tripinfo_26" vType="DEFAULT_VEHTYPE" speedFactor="0.92" vaporized=""/>
    <tripinfo id="37" depart="45.00" departLane="328833896#0_0" departPos="5.10" departSpeed="13.89" departDelay="0.60" arrival="125.00" arrivalLane="118454607_0" arrivalPos="81.04" arrivalSpeed="20.58" duration="80.00" routeLength="651.56" waitingTime="21.00" waitingCount="1" stopTime="0.00" timeLoss="45.38" rerouteNo="0" devices="tripinfo_37" vType="DEFAULT_VEHTYPE" speedFactor="1.18" vaporized=""/>
    <tripinfo id="53" depart="64.00" departLane="-328833896#1_0" departPos="5.10" departSpeed="15.22" departDelay="0.40" arrival="125.00" arrivalLane="643445231#0_0" arrivalPos="50.56" arrivalSpeed="14.02" duration="61.00" routeLength="522.10" waitingTime="8.00" waitingCount="1" stopTime="0.00" timeLoss="25.51" rerouteNo="0" devices="tripinfo_53" vType="DEFAULT_VEHTYPE" speedFactor="1.10" vaporized=""/>
    <tripinfo id="11" depart="14.00" departLane="30619634#6_0" departPos="5.10" departSpeed="8.33" departDelay="0.80" arrival="127.00" arrivalLane="-118454616_0" arrivalPos="1.16" arrivalSpeed="14.16" duration="113.00" routeLength="1198.45" waitingTime="0.00" waitingCount="0" stopTime="0.00" timeLoss="35.23" rerouteNo="0" devices="tripinfo_11" vType="DEFAULT_VEHTYPE" speedFactor="1.03" vaporized=""/>
    <tripinfo id="36" depart="44.00" departLane="30619423_0" departPos="5.10" departSpeed="12.78" departDelay="0.80" arrival="127.00" arrivalLane="-30619634#1_0" arrivalPos="307.52" arrivalSpeed="7.35" duration="83.00" routeLength="667.01" waitingTime="0.00" waitingCount="0" stopTime="0.00" timeLoss="7.78" rerouteNo="0" devices="tripinfo_36" vType="DEFAULT_VEHTYPE" speedFactor="0.97" vaporized=""/>
    <tripinfo id="89" depart="107.00" departLane="1161228580_0" departPos="5.10" departSpeed="13.89" departDelay="0.20" arrival="127.00" arrivalLane="-328833896#1_0" arrivalPos="82.69" arrivalSpeed="14.08" duration="20.00" routeLength="180.38" waitingTime="0.00" waitingCount="0" stopTime="0.00" timeLoss="5.15" rerouteNo="0" devices="tripinfo_89" vType="DEFAULT_VEHTYPE" speedFactor="1.02" vaporized=""/>
    <tripinfo id="63" depart="76.00" departLane="907577402_0" departPos="5.10" departSpeed="13.71" departDelay="0.40" arrival="128.00" arrivalLane="397562860#0_0" arrivalPos="63.66" arrivalSpeed="12.92" duration="52.00" routeLength="119.25" waitingTime="38.00" waitingCount="1" stopTime="0.00" timeLoss="42.61" rerouteNo="0" devices="tripinfo_63" vType="DEFAULT_VEHTYPE" speedFactor="0.99" vaporized=""/>
    <tripinfo id="73" depart="88.00" departLane="-30619422#0_0" departPos="5.10" departSpeed="13.89" departDelay="0.40" arrival="128.00" arrivalLane="-30619634#4_0" arrivalPos="26.86" arrivalSpeed="8.13" duration="40.00" routeLength="388.39" waitingTime="0.00" waitingCount="0" stopTime="0.00" timeLoss="5.37" rerouteNo="0" devices="tripinfo_73" vType="DEFAULT_VEHTYPE" speedFactor="1.06" vaporized=""/>
    <tripinfo id="39" depart="47.00" departLane="-1117321962_0" departPos="5.10" departSpeed="12.51" departDelay="0.20" arrival="130.00" arrivalLane="-329167772_0" arrivalPos="87.38" arrivalSpeed="11.34" duration="83.00" routeLength="829.52" waitingTime="6.00" waitingCount="2" stopTime="0.00" timeLoss="29.77" rerouteNo="0" devices="tripinfo_39" vType="DEFAULT_VEHTYPE" speedFactor="0.90" vaporized=""/>
    <tripinfo id="88" depart="106.00" departLane="118454616_0" departPos="1.75" departSpeed="24.75" departDelay="0.40" arrival="130.00" arrivalLane="643445231#0_0" arrivalPos="50.56" arrivalSpeed="13.43" duration="24.00" routeLength="219.43" waitingTime="0.00" waitingCount="0" stopTime="0.00" timeLoss="11.75" rerouteNo="0" devices="tripinfo_88" vType="DEFAULT_VEHTYPE" speedFactor="1.01" vaporized=""/>
    <tripinfo id="62" depart="75.00" departLane="299981295#0_2" departPos="5.10" departSpeed="27.78" departDelay="0.60" arrival="131.00" arrivalLane="-118454616_0" arrivalPos="1.16" arrivalSpeed="15.46" duration="56.00" routeLength="917.52" waitingTime="0.00" waitingCount="0" stopTime="0.00" timeLoss="20.91" rerouteNo="0" devices="tripinfo_62" vType="DEFAULT_VEHTYPE" speedFactor="1.02" vaporized=""/>
    <tripinfo id="60" depart="72.00" departLane="1161228580_0" departPos="5.10" departSpeed="10.88" departDelay="0.00" arrival="133.00" arrivalLane="-328833896#2_0" arrivalPos="76.34" arrivalSpeed="14.25" duration="61.00" routeLength="558.65" waitingTime="0.00" waitingCount="0" stopTime="0.00" timeLoss="20.38" rerouteNo="0" devices="tripinfo_60" vType="DEFAULT_VEHTYPE" speedFactor="1.08" vaporized=""/>
    <tripinfo id="54" depart="65.00" departLane="738532262#0_0" departPos="5.10" departSpeed="16.84" departDelay="0.20" arrival="134.00" arrivalLane="1524206042_0" arrivalPos="105.82" arrivalSpeed="13.53" duration="69.00" routeLength="811.65" waitingTime="0.00" waitingCount="0" stopTime="0.00" timeLoss="21.06" rerouteNo="0" devices="tripinfo_54" vType="DEFAULT_VEHTYPE" speedFactor="1.00" vaporized=""/>
    <tripinfo id="58" depart="70.00" departLane="-755952845#1_0" departPos="5.10" departSpeed="13.49" departDelay="0.40" arrival="137.00" arrivalLane="-329167779#0_0" arrivalPos="130.12" arrivalSpeed="13.47" duration="67.00" routeLength="364.79" waitingTime="33.00" waitingCount="1" stopTime="0.00" timeLoss="39.89" rerouteNo="0" devices="tripinfo_58" vType="DEFAULT_VEHTYPE" speedFactor="1.02" vaporized=""/>
    <tripinfo id="66" depart="80.00" departLane="-329167779#1_0" departPos="5.10" departSpeed="12.60" departDelay="0.80" arrival="137.00" arrivalLane="327743346_0" arrivalPos="229.59" arrivalSpeed="25.13" duration="57.00" routeLength="660.42" waitingTime="0.00" waitingCount="0" stopTime="0.00" timeLoss="10.99" rerouteNo="0" devices="tripinfo_66" vType="DEFAULT_VEHTYPE" speedFactor="0.91" vaporized=""/>
    <tripinfo id="8" depart="10.00" departLane="199416076#1_0" departPos="5.10" departSpeed="13.03" departDelay="0.40" arrival="139.00" arrivalLane="755952845#1_0" arrivalPos="32.07" arrivalSpeed="12.10" duration="129.00" routeLength="1447.71" waitingTime="5.00" waitingCount="1" stopTime="0.00" timeLoss="34.55" rerouteNo="0" devices="tripinfo_8" vType="DEFAULT_VEHTYPE" speedFactor="0.94" vaporized=""/>
    <tripinfo id="104" depart="127.00" departLane="397562860#0_0" departPos="5.10" departSpeed="12.42" departDelay="2.20" arrival="140.00" arrivalLane="397562860#1_0" arrivalPos="36.89" arrivalSpeed="11.93" duration="13.00" routeLength="109.78" waitingTime="0.00" waitingCount="0" stopTime="0.00" timeLoss="3.60" rerouteNo="0" devices="tripinfo_104" vType="DEFAULT_VEHTYPE" speedFactor="0.89" vaporized=""/>
    <tripinfo id="64" depart="109.00" departLane="-755952845#1_0" departPos="5.10" departSpeed="13.02" departDelay="32.20" arrival="142.00" arrivalLane="-1524206042_0" arrivalPos="110.76" arrivalSpeed="11.72" duration="33.00" routeLength="318.05" waitingTime="0.00" waitingCount="0" stopTime="0.00" timeLoss="6.13" rerouteNo="0" devices="tripinfo_64" vType="DEFAULT_VEHTYPE" speedFactor="0.94" vaporized=""/>
    <tripinfo id="5" depart="6.00" departLane="328840073_0" departPos="5.10" departSpeed="18.46" departDelay="0.00" arrival="144.00" arrivalLane="-1127825145_0" arrivalPos="144.31" arrivalSpeed="11.15" duration="138.00" routeLength="1766.95" waitingTime="6.00" waitingCount="2" stopTime="0.00" timeLoss="23.89" rerouteNo="0" devices="tripinfo_5" vType="DEFAULT_VEHTYPE" speedFactor="0.83" vaporized=""/>
    <tripinfo id="55" depart="68.00" departLane="118454614#0_1" departPos="5.10" departSpeed="13.66" departDelay="2.00" arrival="148.00" arrivalLane="327743346_2" arrivalPos="229.59" arrivalSpeed="26.67" duration="80.00" routeLength="685.02" waitingTime="35.00" waitingCount="2" stopTime="0.00" timeLoss="52.64" rerouteNo="0" devices="tripinfo_55" vType="DEFAULT_VEHTYPE" speedFactor="1.00" vaporized=""/>
    <tripinfo id="18" depart="22.00" departLane="-30619634#4_0" departPos="5.10" departSpeed="7.80" departDelay="0.40" arrival="151.00" arrivalLane="-397562860#1_0" arrivalPos="36.89" arrivalSpeed="12.30" duration="129.00" routeLength="1404.64" waitingTime="9.00" waitingCount="1" stopTime="0.00" timeLoss="39.98" rerouteNo="0" devices="tripinfo_18" vType="DEFAULT_VEHTYPE" speedFactor="0.94" vaporized=""/>
    <tripinfo id="51" depart="62.00" departLane="-328833896#1_0" departPos="5.10" departSpeed="13.89" departDelay="0.80" arrival="151.00" arrivalLane="-30645384_0" arrivalPos="581.77" arrivalSpeed="15.19" duration="89.00" routeLength="1118.49" waitingTime="0.00" waitingCount="0" stopTime="0.00" timeLoss="19.21" rerouteNo="0" devices="tripinfo_51" vType="DEFAULT_VEHTYPE" speedFactor="1.17" vaporized=""/>
    <tripinfo id="44" depart="53.00" departLane="-199416076#1_0" departPos="5.10" departSpeed="14.49" departDelay="0.20" arrival="152.00" arrivalLane="318042913_0" arrivalPos="1300.11" arrivalSpeed="27.74" duration="99.00" routeLength="2024.09" waitingTime="0.00" waitingCount="0" stopTime="0.00" timeLoss="14.81" rerouteNo="0" devices="tripinfo_44" vType="DEFAULT_VEHTYPE" speedFactor="1.04" vaporized=""/>
    <tripinfo id="52" depart="63.00" departLane="-199416076#1_0" departPos="5.10" departSpeed="13.79" departDelay="0.60" arrival="153.00" arrivalLane="30619422#0_0" arrivalPos="231.26" arrivalSpeed="13.07" duration="90.00" routeLength="948.61" waitingTime="0.00" waitingCount="0" stopTime="0.00" timeLoss="8.93" rerouteNo="0" devices="tripinfo_52" vType="DEFAULT_VEHTYPE" speedFactor="1.02" vaporized=""/>
    <tripinfo id="93" depart="112.00" departLane="1161228580_0" departPos="5.10" departSpeed="4.27" departDelay="0.40" arrival="154.00" arrivalLane="-1127825145_0" arrivalPos="144.31" arrivalSpeed="11.63" duration="42.00" routeLength="325.59" waitingTime="0.00" waitingCount="0" stopTime="0.00" timeLoss="14.27" rerouteNo="0" devices="tripinfo_93" vType="DEFAULT_VEHTYPE" speedFactor="0.92" vaporized=""/>
    <tripinfo id="74" depart="89.00" departLane="30619422#1_0" departPos="5.10" departSpeed="13.27" departDelay="0.20" arrival="156.00" arrivalLane="30619424#1_0" arrivalPos="99.58" arrivalSpeed="10.10" duration="67.00" routeLength="649.02" waitingTime="2.00" waitingCount="1" stopTime="0.00" timeLoss="14.76" rerouteNo="0" devices="tripinfo_74" vType="DEFAULT_VEHTYPE" speedFactor="0.96" vaporized=""/>
    <tripinfo id="31" depart="38.00" departLane="-199416076#1_0" departPos="5.10" departSpeed="11.89" departDelay="0.80" arrival="159.00" arrivalLane="-397562860#2_0" arrivalPos="33.19" arrivalSpeed="11.14" duration="121.00" routeLength="1400.64" waitingTime="7.00" waitingCount="1" stopTime="0.00" timeLoss="51.59" rerouteNo="0" devices="tripinfo_31" vType="DEFAULT_VEHTYPE" speedFactor="1.15" vaporized=""/>
    <tripinfo id="100" depart="125.00" departLane="397562860#0_0" departPos="5.10" departSpeed="10.97" departDelay="5.00" arrival="162.00" arrivalLane="769567696_0" arrivalPos="63.97" arrivalSpeed="13.99" duration="37.00" routeLength="317.14" waitingTime="0.00" waitingCount="0" stopTime="0.00" timeLoss="13.24" rerouteNo="0" devices="tripinfo_100" vType="DEFAULT_VEHTYPE" speedFactor="1.06" vaporized=""/>
    <tripinfo id="57" depart="69.00" departLane="1161228580_0" departPos="5.10" departSpeed="13.89" departDelay="0.60" arrival="163.00" arrivalLane="-907577402_0" arrivalPos="52.95" arrivalSpeed="15.00" duration="94.00" routeLength="959.00" waitingTime="6.00" waitingCount="2" stopTime="0.00" timeLoss="43.71" rerouteNo="0" devices="tripinfo_57" vType="DEFAULT_VEHTYPE" speedFactor="1.14" vaporized=""/>
    <tripinfo id="71" depart="86.00" departLane="1256487147_1" departPos="5.10" departSpeed="21.62" departDelay="0.80" arrival="164.00" arrivalLane="397562860#1_0" arrivalPos="36.89" arrivalSpeed="12.40" duration="78.00" routeLength="885.48" waitingTime="12.00" waitingCount="1" stopTime="0.00" timeLoss="30.52" rerouteNo="0" devices="tripinfo_71" vType="DEFAULT_VEHTYPE" speedFactor="0.97" vaporized=""/>
    <tripinfo id="102" depart="123.00" departLane="-643445231#0_0" departPos="5.10" departSpeed="9.73" departDelay="0.60" arrival="166.00" arrivalLane="643466772_0" arrivalPos="9.10" arrivalSpeed="10.21" duration="43.00" routeLength="133.83" waitingTime="23.00" waitingCount="1" stopTime="0.00" timeLoss="35.17" rerouteNo="0" devices="tripinfo_102" vType="DEFAULT_VEHTYPE" speedFactor="0.97" vaporized=""/>
    <tripinfo id="116" depart="140.00" departLane="199416076#1_0" departPos="5.10" departSpeed="13.89" departDelay="0.80" arrival="169.00" arrivalLane="30619634#5_0" arrivalPos="51.77" arrivalSpeed="9.40" duration="29.00" routeLength="362.36" waitingTime="0.00" waitingCount="0" stopTime="0.00" timeLoss="2.06" rerouteNo="0" devices="tripinfo_116" vType="DEFAULT_VEHTYPE" speedFactor="1.18" vaporized=""/>
    <tripinfo id="28" depart="34.00" departLane="-30619422#1_0" departPos="5.10" departSpeed="10.58" departDelay="0.40" arrival="170.00" arrivalLane="-118454616_0" arrivalPos="1.16" arrivalSpeed="15.85" duration="136.00" routeLength="1490.05" waitingTime="2.00" waitingCount="1" stopTime="0.00" timeLoss="51.55" rerouteNo="0" devices="tripinfo_28" vType="DEFAULT_VEHTYPE" speedFactor="1.13" vaporized=""/>
    <tripinfo id="118" depart="142.00" departLane="-397562860#4_0" departPos="5.10" departSpeed="13.77" departDelay="0.40" arrival="174.00" arrivalLane="397562860#0_0" arrivalPos="63.66" arrivalSpeed="13.09" duration="32.00" routeLength="354.34" waitingTime="0.00" waitingCount="0" stopTime="0.00" timeLoss="5.23" rerouteNo="0" devices="tripinfo_118" vType="DEFAULT_VEHTYPE" speedFactor="0.99" vaporized=""/>
    <tripinfo id="13" depart="16.00" departLane="-30619422#0_0" departPos="5.10" departSpeed="13.89" departDelay="0.40" arrival="179.00" arrivalLane="-30645392#0_0" arrivalPos="85.36" arrivalSpeed="14.72" duration="163.00" routeLength="1641.85" waitingTime="22.00" waitingCount="1" stopTime="0.00" timeLoss="62.10" rerouteNo="0" devices="tripinfo_13" vType="DEFAULT_VEHTYPE" speedFactor="1.12" vaporized=""/>
    <tripinfo id="125" depart="150.00" departLane="118454614#0_1" departPos="5.10" departSpeed="0.00" departDelay="0.00" arrival="180.00" arrivalLane="643445231#0_0" arrivalPos="50.56" arrivalSpeed="15.71" duration="30.00" routeLength="225.18" waitingTime="0.00" waitingCount="0" stopTime="0.00" timeLoss="19.56" rerouteNo="0" devices="tripinfo_125" vType="DEFAULT_VEHTYPE" speedFactor="1.15" vaporized=""/>
    <tripinfo id="115" depart="138.00" departLane="-1117321962_0" departPos="5.10" departSpeed="12.81" departDelay="0.00" arrival="182.00" arrivalLane="643466772_0" arrivalPos="9.10" arrivalSpeed="6.80" duration="44.00" routeLength="342.72" waitingTime="1.00" waitingCount="1" stopTime="0.00" timeLoss="18.92" rerouteNo="0" devices="tripinfo_115" vType="DEFAULT_VEHTYPE" speedFactor="0.92" vaporized=""/>