<?xml version="1.0" encoding="UTF-8"?>

<!-- generated on 2026-06-28T01:05:29.385609+00:00 by Eclipse SUMO GUI 1.27.1
<sumoConfiguration xmlns:xsi="http://www.w3.org/2001/XMLSchema-instance" xsi:noNamespaceSchemaLocation="http://sumo.dlr.de/xsd/sumoConfiguration.xsd">

    <input>
        <net-file value="/Users/ipotekohanhassan/master-rl-feux/2026-06-28-01-05-20/osm.net.xml.gz"/>
        <route-files value="/Users/ipotekohanhassan/master-rl-feux/2026-06-28-01-05-20/osm.passenger.trips.xml"/>
        <additional-files value="/Users/ipotekohanhassan/master-rl-feux/2026-06-28-01-05-20/output.add.xml"/>
    </input>

    <output>
        <tripinfo-output value="/Users/ipotekohanhassan/master-rl-feux/2026-06-28-01-05-20/tripinfos.xml"/>
        <statistic-output value="/Users/ipotekohanhassan/master-rl-feux/2026-06-28-01-05-20/stats.xml"/>
    </output>

    <processing>
        <ignore-route-errors value="true"/>
        <tls.actuated.jam-threshold value="30"/>
    </processing>

    <routing>
        <device.rerouting.adaptation-steps value="18"/>
        <device.rerouting.adaptation-interval value="10"/>
    </routing>

    <report>
        <verbose value="true"/>
        <duration-log.statistics value="true"/>
        <no-step-log value="true"/>
    </report>

    <gui_only>
        <gui-settings-file value="/Users/ipotekohanhassan/master-rl-feux/2026-06-28-01-05-20/osm.view.xml"/>
    </gui_only>

</sumoConfiguration>
-->

<meandata xmlns:xsi="http://www.w3.org/2001/XMLSchema-instance" xsi:noNamespaceSchemaLocation="http://sumo.dlr.de/xsd/meandata_file.xsd">
    <interval begin="0.00" end="3600.00" id="wizard_example">
        <edge id="-1117321962" sampledSeconds="246.99" traveltime="16.23" overlapTraveltime="16.89" density="0.33" overlapDensity="0.35" laneDensity="0.33" occupancy="0.17" waitingTime="0.00" timeLoss="26.93" speed="11.96" speedRelative="0.86" departed="15" arrived="0" entered="0" left="15" laneChangedFrom="0" laneChangedTo="0" flow="14.61"/>
        <edge id="-1127825145" sampledSeconds="602.33" traveltime="13.54" overlapTraveltime="14.19" density="1.11" overlapDensity="1.16" laneDensity="1.11" occupancy="0.54" waitingTime="0.00" timeLoss="154.66" speed="10.52" speedRelative="0.76" departed="0" arrived="0" entered="43" left="42" laneChangedFrom="0" laneChangedTo="0" flow="42.46"/>
        <edge id="-1137542845" sampledSeconds="4.58" traveltime="0.08" overlapTraveltime="0.79" density="0.48" overlapDensity="2.31" laneDensity="0.48" occupancy="0.11" waitingTime="0.00" timeLoss="2.27" speed="7.02" speedRelative="0.51" departed="0" arrived="12" entered="12" left="0" laneChangedFrom="0" laneChangedTo="0" flow="12.00"/>
        <edge id="-1144643427" sampledSeconds="29.79" traveltime="3.60" overlapTraveltime="3.90" density="0.21" overlapDensity="0.22" laneDensity="0.21" occupancy="0.09" waitingTime="0.00" timeLoss="17.92" speed="10.72" speedRelative="0.39" departed="3" arrived="0" entered="5" left="8" laneChangedFrom="0" laneChangedTo="0" flow="7.58"/>
        <edge id="-1161228580" sampledSeconds="47.52" traveltime="5.66" overlapTraveltime="6.08" density="0.22" overlapDensity="0.23" laneDensity="0.22" occupancy="0.10" waitingTime="0.00" timeLoss="10.36" speed="10.44" speedRelative="0.75" departed="0" arrived="8" entered="8" left="0" laneChangedFrom="0" laneChangedTo="0" flow="8.00"/>
        <edge id="-118454616" sampledSeconds="28.32" traveltime="0.10" overlapTraveltime="0.51" density="1.30" overlapDensity="6.78" laneDensity="1.30" occupancy="0.64" waitingTime="0.00" timeLoss="16.25" speed="11.96" speedRelative="0.43" departed="0" arrived="1" entered="55" left="54" laneChangedFrom="0" laneChangedTo="0" flow="55.00"/>
        <edge id="-1524206042" sampledSeconds="16.09" traveltime="9.83" overlapTraveltime="10.50" density="0.04" overlapDensity="0.04" laneDensity="0.04" occupancy="0.02" waitingTime="0.00" timeLoss="3.20" speed="11.03" speedRelative="0.79" departed="0" arrived="0" entered="2" left="1" laneChangedFrom="0" laneChangedTo="0" flow="1.56"/>
        <edge id="-199416076#0" sampledSeconds="0.00" departed="0" arrived="0" entered="0" left="0" laneChangedFrom="0" laneChangedTo="0"/>
        <edge id="-199416076#1" sampledSeconds="1157.37" traveltime="20.24" overlapTraveltime="21.08" density="1.21" overlapDensity="1.26" laneDensity="1.21" occupancy="0.61" waitingTime="0.00" timeLoss="102.12" speed="12.37" speedRelative="0.89" departed="4" arrived="1" entered="51" left="54" laneChangedFrom="0" laneChangedTo="0" flow="54.92"/>
        <edge id="-30619422#0" sampledSeconds="69.13" traveltime="16.99" overlapTraveltime="17.57" density="0.08" overlapDensity="0.08" laneDensity="0.08" occupancy="0.04" waitingTime="0.00" timeLoss="3.97" speed="13.16" speedRelative="0.95" departed="2" arrived="2" entered="2" left="2" laneChangedFrom="0" laneChangedTo="0" flow="3.95"/>
        <edge id="-30619422#1" sampledSeconds="110.77" traveltime="17.99" overlapTraveltime="18.67" density="0.13" overlapDensity="0.14" laneDensity="0.13" occupancy="0.07" waitingTime="0.00" timeLoss="8.69" speed="12.46" speedRelative="0.90" departed="3" arrived="0" entered="3" left="6" laneChangedFrom="0" laneChangedTo="0" flow="5.93"/>
        <edge id="-30619423" sampledSeconds="40.17" traveltime="12.91" overlapTraveltime="13.80" density="0.06" overlapDensity="0.07" laneDensity="0.06" occupancy="0.03" waitingTime="0.00" timeLoss="6.56" speed="12.45" speedRelative="0.90" departed="3" arrived="0" entered="0" left="3" laneChangedFrom="0" laneChangedTo="0" flow="2.91"/>
        <edge id="-30619424#0" sampledSeconds="94.96" traveltime="14.75" overlapTraveltime="16.11" density="0.13" overlapDensity="0.14" laneDensity="0.13" occupancy="0.07" waitingTime="0.00" timeLoss="10.98" speed="11.87" speedRelative="0.85" departed="4" arrived="0" entered="2" left="6" laneChangedFrom="0" laneChangedTo="0" flow="5.89"/>
        <edge id="-30619424#2" sampledSeconds="95.14" traveltime="9.79" overlapTraveltime="10.74" density="0.24" overlapDensity="0.26" laneDensity="0.24" occupancy="0.12" waitingTime="0.00" timeLoss="22.03" speed="9.90" speedRelative="0.71" departed="3" arrived="1" entered="6" left="8" laneChangedFrom="0" laneChangedTo="0" flow="8.85"/>
        <edge id="-30619634#1" sampledSeconds="126.88" traveltime="41.67" overlapTraveltime="42.37" density="0.11" overlapDensity="0.11" laneDensity="0.11" occupancy="0.06" waitingTime="0.00" timeLoss="10.12" speed="7.38" speedRelative="0.89" departed="0" arrived="3" entered="3" left="0" laneChangedFrom="0" laneChangedTo="0" flow="3.00"/>
        <edge id="-30619634#2" sampledSeconds="88.64" traveltime="7.51" overlapTraveltime="8.31" density="0.39" overlapDensity="0.43" laneDensity="0.39" occupancy="0.20" waitingTime="0.00" timeLoss="8.75" speed="7.43" speedRelative="0.89" departed="4" arrived="1" entered="7" left="10" laneChangedFrom="0" laneChangedTo="0" flow="10.64"/>
        <edge id="-30619634#4" sampledSeconds="195.56" traveltime="4.16" overlapTraveltime="4.97" density="1.70" overlapDensity="2.02" laneDensity="1.70" occupancy="0.87" waitingTime="3.00" timeLoss="52.10" speed="6.42" speedRelative="0.77" departed="3" arrived="1" entered="37" left="39" laneChangedFrom="0" laneChangedTo="0" flow="39.43"/>
        <edge id="-30619634#5" sampledSeconds="238.60" traveltime="7.33" overlapTraveltime="8.05" density="1.16" overlapDensity="1.28" laneDensity="1.16" occupancy="0.58" waitingTime="0.00" timeLoss="33.27" speed="7.05" speedRelative="0.85" departed="4" arrived="0" entered="26" left="30" laneChangedFrom="0" laneChangedTo="0" flow="29.61"/>
        <edge id="-30619634#6" sampledSeconds="125.15" traveltime="7.15" overlapTraveltime="7.87" density="0.62" overlapDensity="0.68" laneDensity="0.62" occupancy="0.31" waitingTime="0.00" timeLoss="17.26" speed="7.11" speedRelative="0.85" departed="1" arrived="0" entered="15" left="16" laneChangedFrom="0" laneChangedTo="0" flow="15.90"/>
        <edge id="-30619634#7" sampledSeconds="1036.55" traveltime="103.57" overlapTraveltime="104.35" density="0.38" overlapDensity="0.38" laneDensity="0.38" occupancy="0.19" waitingTime="0.00" timeLoss="89.72" speed="7.34" speedRelative="0.88" departed="10" arrived="0" entered="0" left="10" laneChangedFrom="0" laneChangedTo="0" flow="9.93"/>
        <edge id="-30645384" sampledSeconds="343.45" traveltime="42.65" overlapTraveltime="43.01" density="0.16" overlapDensity="0.16" laneDensity="0.16" occupancy="0.08" waitingTime="0.00" timeLoss="20.24" speed="13.64" speedRelative="0.98" departed="0" arrived="8" entered="8" left="0" laneChangedFrom="0" laneChangedTo="0" flow="8.00"/>
        <edge id="-30645392#0" sampledSeconds="73.68" traveltime="6.38" overlapTraveltime="6.75" density="0.23" overlapDensity="0.24" laneDensity="0.23" occupancy="0.11" waitingTime="0.00" timeLoss="3.44" speed="13.38" speedRelative="0.96" departed="0" arrived="11" entered="11" left="0" laneChangedFrom="0" laneChangedTo="0" flow="11.00"/>
        <edge id="-30645392#2" sampledSeconds="73.96" traveltime="2.28" overlapTraveltime="3.03" density="0.74" overlapDensity="0.98" laneDensity="0.74" occupancy="0.39" waitingTime="0.00" timeLoss="19.95" speed="8.54" speedRelative="0.61" departed="3" arrived="2" entered="22" left="23" laneChangedFrom="0" laneChangedTo="0" flow="24.27"/>
        <edge id="-327793028" sampledSeconds="89.23" traveltime="7.86" overlapTraveltime="8.53" density="0.23" overlapDensity="0.25" laneDensity="0.23" occupancy="0.12" waitingTime="0.00" timeLoss="8.28" speed="12.20" speedRelative="0.88" departed="11" arrived="0" entered="0" left="11" laneChangedFrom="0" laneChangedTo="0" flow="10.43"/>
        <edge id="-328833896#0" sampledSeconds="64.11" traveltime="6.11" overlapTraveltime="6.51" density="0.22" overlapDensity="0.23" laneDensity="0.22" occupancy="0.11" waitingTime="0.00" timeLoss="2.99" speed="12.58" speedRelative="0.91" departed="0" arrived="10" entered="10" left="0" laneChangedFrom="0" laneChangedTo="0" flow="10.00"/>
        <edge id="-328833896#1" sampledSeconds="193.04" traveltime="6.72" overlapTraveltime="7.44" density="0.59" overlapDensity="0.65" laneDensity="0.59" occupancy="0.30" waitingTime="0.00" timeLoss="18.84" speed="11.78" speedRelative="0.85" departed="1" arrived="2" entered="25" left="24" laneChangedFrom="0" laneChangedTo="0" flow="25.94"/>
        <edge id="-328833896#2" sampledSeconds="405.84" traveltime="7.22" overlapTraveltime="7.81" density="1.36" overlapDensity="1.48" laneDensity="1.36" occupancy="0.67" waitingTime="0.00" timeLoss="85.31" speed="10.41" speedRelative="0.75" departed="1" arrived="0" entered="51" left="52" laneChangedFrom="0" laneChangedTo="0" flow="51.93"/>
        <edge id="-328840073" sampledSeconds="1200.53" traveltime="62.76" overlapTraveltime="63.20" density="0.25" overlapDensity="0.26" laneDensity="0.25" occupancy="0.13" waitingTime="0.00" timeLoss="70.62" speed="20.65" speedRelative="0.93" departed="0" arrived="16" entered="19" left="3" laneChangedFrom="0" laneChangedTo="0" flow="19.00"/>
        <edge id="-329167737" sampledSeconds="654.96" traveltime="46.51" overlapTraveltime="46.89" density="0.30" overlapDensity="0.30" laneDensity="0.30" occupancy="0.15" waitingTime="0.00" timeLoss="44.49" speed="13.11" speedRelative="0.94" departed="0" arrived="14" entered="14" left="0" laneChangedFrom="0" laneChangedTo="0" flow="14.00"/>
        <edge id="-329167772" sampledSeconds="90.16" traveltime="7.23" overlapTraveltime="7.62" density="0.28" overlapDensity="0.29" laneDensity="0.28" occupancy="0.13" waitingTime="0.00" timeLoss="12.28" speed="12.13" speedRelative="0.87" departed="0" arrived="12" entered="12" left="0" laneChangedFrom="0" laneChangedTo="0" flow="12.00"/>
        <edge id="-329167775" sampledSeconds="0.00" departed="0" arrived="0" entered="0" left="0" laneChangedFrom="0" laneChangedTo="0"/>
        <edge id="-329167779#0" sampledSeconds="125.78" traveltime="10.13" overlapTraveltime="10.51" density="0.26" overlapDensity="0.27" laneDensity="0.26" occupancy="0.13" waitingTime="0.00" timeLoss="6.21" speed="12.85" speedRelative="0.93" departed="0" arrived="12" entered="12" left="0" laneChangedFrom="0" laneChangedTo="0" flow="12.00"/>
        <edge id="-329167779#1" sampledSeconds="103.72" traveltime="5.94" overlapTraveltime="6.48" density="0.41" overlapDensity="0.45" laneDensity="0.41" occupancy="0.20" waitingTime="0.00" timeLoss="19.07" speed="10.71" speedRelative="0.77" departed="0" arrived="0" entered="16" left="16" laneChangedFrom="0" laneChangedTo="0" flow="16.00"/>
        <edge id="-397562860#0" sampledSeconds="14.50" traveltime="4.48" overlapTraveltime="4.83" density="0.06" overlapDensity="0.06" laneDensity="0.06" occupancy="0.03" waitingTime="0.00" timeLoss="0.68" speed="14.21" speedRelative="1.02" departed="0" arrived="0" entered="3" left="3" laneChangedFrom="0" laneChangedTo="0" flow="3.00"/>
        <edge id="-397562860#1" sampledSeconds="22.55" traveltime="3.24" overlapTraveltime="3.76" density="0.15" overlapDensity="0.17" laneDensity="0.15" occupancy="0.07" waitingTime="0.00" timeLoss="4.15" speed="11.15" speedRelative="0.80" departed="0" arrived="1" entered="6" left="5" laneChangedFrom="0" laneChangedTo="0" flow="6.00"/>
        <edge id="-397562860#2" sampledSeconds="20.89" traveltime="3.12" overlapTraveltime="3.50" density="0.16" overlapDensity="0.17" laneDensity="0.16" occupancy="0.07" waitingTime="0.00" timeLoss="4.81" speed="10.91" speedRelative="0.79" departed="0" arrived="1" entered="6" left="5" laneChangedFrom="0" laneChangedTo="0" flow="6.00"/>
        <edge id="-397562860#4" sampledSeconds="27.71" traveltime="9.09" overlapTraveltime="9.65" density="0.06" overlapDensity="0.07" laneDensity="0.06" occupancy="0.03" waitingTime="0.00" timeLoss="1.81" speed="12.34" speedRelative="0.89" departed="3" arrived="0" entered="0" left="3" laneChangedFrom="0" laneChangedTo="0" flow="2.87"/>
        <edge id="-642258510" sampledSeconds="108.10" traveltime="13.21" overlapTraveltime="13.92" density="0.17" overlapDensity="0.18" laneDensity="0.17" occupancy="0.09" waitingTime="0.00" timeLoss="12.42" speed="12.36" speedRelative="0.89" departed="8" arrived="0" entered="0" left="8" laneChangedFrom="0" laneChangedTo="0" flow="7.76"/>
        <edge id="-643445231#0" sampledSeconds="211.22" traveltime="5.57" overlapTraveltime="6.45" density="1.00" overlapDensity="1.16" laneDensity="1.00" occupancy="0.52" waitingTime="4.00" timeLoss="66.09" speed="8.62" speedRelative="0.62" departed="3" arrived="0" entered="30" left="33" laneChangedFrom="0" laneChangedTo="0" flow="32.70"/>
        <edge id="-643445231#1" sampledSeconds="610.43" traveltime="46.93" overlapTraveltime="47.33" density="0.26" overlapDensity="0.27" laneDensity="0.26" occupancy="0.13" waitingTime="0.00" timeLoss="29.13" speed="13.61" speedRelative="0.98" departed="13" arrived="0" entered="0" left="13" laneChangedFrom="0" laneChangedTo="0" flow="12.90"/>
        <edge id="-738532262#1" sampledSeconds="419.99" traveltime="4.69" overlapTraveltime="5.42" density="2.22" overlapDensity="2.57" laneDensity="2.22" occupancy="1.15" waitingTime="23.00" timeLoss="252.77" speed="9.30" speedRelative="0.33" departed="1" arrived="1" entered="77" left="76" laneChangedFrom="0" laneChangedTo="0" flow="77.51"/>
        <edge id="-755952840" sampledSeconds="140.21" traveltime="1.86" overlapTraveltime="2.23" density="1.33" overlapDensity="1.59" laneDensity="1.33" occupancy="0.65" waitingTime="0.00" timeLoss="69.38" speed="13.28" speedRelative="0.48" departed="0" arrived="1" entered="63" left="62" laneChangedFrom="0" laneChangedTo="0" flow="63.00"/>
        <edge id="-755952845#0" sampledSeconds="12.60" traveltime="5.62" overlapTraveltime="6.30" density="0.05" overlapDensity="0.05" laneDensity="0.05" occupancy="0.03" waitingTime="0.00" timeLoss="3.01" speed="10.96" speedRelative="0.79" departed="0" arrived="0" entered="2" left="2" laneChangedFrom="0" laneChangedTo="0" flow="2.00"/>
        <edge id="-755952845#1" sampledSeconds="18.82" traveltime="3.39" overlapTraveltime="3.87" density="0.15" overlapDensity="0.16" laneDensity="0.15" occupancy="0.07" waitingTime="0.00" timeLoss="4.86" speed="9.58" speedRelative="0.69" departed="0" arrived="2" entered="5" left="3" laneChangedFrom="0" laneChangedTo="0" flow="5.00"/>
        <edge id="-907577402" sampledSeconds="48.55" traveltime="4.50" overlapTraveltime="4.88" density="0.24" overlapDensity="0.25" laneDensity="0.24" occupancy="0.11" waitingTime="0.00" timeLoss="8.01" speed="11.88" speedRelative="0.86" departed="0" arrived="10" entered="10" left="0" laneChangedFrom="0" laneChangedTo="0" flow="10.00"/>
        <edge id="1117321967" sampledSeconds="165.41" traveltime="8.09" overlapTraveltime="8.31" density="0.25" overlapDensity="0.25" laneDensity="0.12" occupancy="0.06" waitingTime="0.00" timeLoss="5.75" speed="22.38" speedRelative="1.01" departed="0" arrived="20" entered="20" left="0" laneChangedFrom="0" laneChangedTo="0" flow="20.00"/>
        <edge id="1117321968#0" sampledSeconds="161.94" traveltime="14.45" overlapTraveltime="14.81" density="0.23" overlapDensity="0.23" laneDensity="0.23" occupancy="0.11" waitingTime="0.00" timeLoss="9.61" speed="13.54" speedRelative="0.98" departed="0" arrived="11" entered="11" left="0" laneChangedFrom="0" laneChangedTo="0" flow="11.00"/>
        <edge id="1130672333" sampledSeconds="49.51" traveltime="2.26" overlapTraveltime="2.95" density="0.29" overlapDensity="0.37" laneDensity="0.29" occupancy="0.16" waitingTime="0.00" timeLoss="18.84" speed="14.16" speedRelative="0.51" departed="0" arrived="12" entered="17" left="5" laneChangedFrom="0" laneChangedTo="0" flow="17.00"/>
        <edge id="1137542845" sampledSeconds="22.53" overlapTraveltime="2.50" density="2.53" overlapDensity="11.38" laneDensity="2.53" occupancy="0.61" waitingTime="5.00" timeLoss="14.15" speed="2.22" speedRelative="0.16" departed="10" arrived="0" entered="0" left="10" laneChangedFrom="0" laneChangedTo="0" flow="0.00"/>
        <edge id="1161228580" sampledSeconds="65.28" traveltime="6.11" overlapTraveltime="7.10" density="0.26" overlapDensity="0.31" laneDensity="0.26" occupancy="0.14" waitingTime="1.00" timeLoss="21.38" speed="8.95" speedRelative="0.64" departed="10" arrived="0" entered="0" left="10" laneChangedFrom="0" laneChangedTo="0" flow="9.13"/>
        <edge id="1168359536" sampledSeconds="1902.08" traveltime="16.39" overlapTraveltime="17.08" density="1.58" overlapDensity="1.65" laneDensity="0.53" occupancy="0.27" waitingTime="0.00" timeLoss="523.06" speed="19.04" speedRelative="0.69" departed="3" arrived="5" entered="111" left="106" laneChangedFrom="91" laneChangedTo="91" flow="111.39"/>
        <edge id="118454606" sampledSeconds="4.93" traveltime="0.01" overlapTraveltime="0.24" density="0.28" overlapDensity="6.84" laneDensity="0.28" occupancy="0.13" waitingTime="0.00" timeLoss="0.41" speed="21.26" speedRelative="0.96" departed="0" arrived="1" entered="21" left="20" laneChangedFrom="0" laneChangedTo="0" flow="21.00"/>
        <edge id="118454607" sampledSeconds="239.95" traveltime="5.75" overlapTraveltime="6.33" density="0.75" overlapDensity="0.82" laneDensity="0.75" occupancy="0.37" waitingTime="3.00" timeLoss="90.24" speed="13.59" speedRelative="0.61" departed="1" arrived="2" entered="37" left="36" laneChangedFrom="0" laneChangedTo="0" flow="37.94"/>
        <edge id="118454614#0" sampledSeconds="677.77" traveltime="12.60" overlapTraveltime="13.64" density="2.29" overlapDensity="2.47" laneDensity="1.14" occupancy="0.59" waitingTime="267.00" timeLoss="492.49" speed="5.96" speedRelative="0.27" departed="2" arrived="3" entered="48" left="46" laneChangedFrom="14" laneChangedTo="14" flow="49.85"/>
        <edge id="118454616" sampledSeconds="69.28" traveltime="0.23" overlapTraveltime="0.86" density="2.94" overlapDensity="11.00" laneDensity="2.94" occupancy="1.45" waitingTime="2.00" timeLoss="35.59" speed="7.89" speedRelative="0.28" departed="0" arrived="0" entered="81" left="81" laneChangedFrom="0" laneChangedTo="0" flow="81.00"/>
        <edge id="1256487147" sampledSeconds="235.98" traveltime="8.14" overlapTraveltime="8.37" density="0.36" overlapDensity="0.37" laneDensity="0.18" occupancy="0.09" waitingTime="0.00" timeLoss="6.60" speed="21.61" speedRelative="0.97" departed="29" arrived="0" entered="0" left="29" laneChangedFrom="0" laneChangedTo="0" flow="28.16"/>
        <edge id="1524206042" sampledSeconds="39.45" traveltime="9.54" overlapTraveltime="9.96" density="0.10" overlapDensity="0.10" laneDensity="0.10" occupancy="0.05" waitingTime="0.00" timeLoss="5.99" speed="11.13" speedRelative="0.80" departed="0" arrived="4" entered="4" left="0" laneChangedFrom="0" laneChangedTo="0" flow="4.00"/>
        <edge id="199416076#0" sampledSeconds="227.85" traveltime="20.29" overlapTraveltime="21.12" density="0.23" overlapDensity="0.24" laneDensity="0.23" occupancy="0.12" waitingTime="0.00" timeLoss="18.00" speed="12.55" speedRelative="0.90" departed="11" arrived="0" entered="0" left="11" laneChangedFrom="0" laneChangedTo="0" flow="10.78"/>
        <edge id="199416076#1" sampledSeconds="163.08" traveltime="19.87" overlapTraveltime="20.54" density="0.17" overlapDensity="0.18" laneDensity="0.17" occupancy="0.09" waitingTime="0.00" timeLoss="12.84" speed="12.45" speedRelative="0.90" departed="3" arrived="0" entered="5" left="8" laneChangedFrom="0" laneChangedTo="0" flow="7.94"/>
        <edge id="299981295#0" sampledSeconds="426.54" traveltime="11.77" overlapTraveltime="12.04" density="0.37" overlapDensity="0.38" laneDensity="0.12" occupancy="0.06" waitingTime="0.00" timeLoss="19.47" speed="26.45" speedRelative="0.95" departed="36" arrived="0" entered="0" left="36" laneChangedFrom="0" laneChangedTo="0" flow="35.41"/>
        <edge id="299981295#1" sampledSeconds="3196.91" traveltime="24.98" overlapTraveltime="26.00" density="2.58" overlapDensity="2.68" laneDensity="0.86" occupancy="0.43" waitingTime="714.00" timeLoss="1666.14" speed="12.92" speedRelative="0.46" departed="4" arrived="0" entered="119" left="123" laneChangedFrom="144" laneChangedTo="144" flow="122.94"/>
        <edge id="30619419" sampledSeconds="335.64" traveltime="1.66" overlapTraveltime="2.39" density="6.98" overlapDensity="10.00" laneDensity="6.98" occupancy="3.47" waitingTime="17.00" timeLoss="227.83" speed="6.00" speedRelative="0.22" departed="0" arrived="2" entered="141" left="139" laneChangedFrom="0" laneChangedTo="0" flow="140.99"/>
        <edge id="30619422#0" sampledSeconds="17.86" traveltime="17.88" overlapTraveltime="18.26" density="0.02" overlapDensity="0.02" laneDensity="0.02" occupancy="0.01" waitingTime="0.00" timeLoss="0.86" speed="12.94" speedRelative="0.93" departed="1" arrived="0" entered="0" left="1" laneChangedFrom="0" laneChangedTo="0" flow="0.98"/>
        <edge id="30619422#1" sampledSeconds="91.01" traveltime="17.48" overlapTraveltime="18.28" density="0.10" overlapDensity="0.11" laneDensity="0.10" occupancy="0.05" waitingTime="0.00" timeLoss="8.13" speed="13.01" speedRelative="0.94" departed="1" arrived="0" entered="4" left="5" laneChangedFrom="0" laneChangedTo="0" flow="4.98"/>
        <edge id="30619423" sampledSeconds="101.04" traveltime="13.80" overlapTraveltime="14.62" density="0.16" overlapDensity="0.17" laneDensity="0.16" occupancy="0.08" waitingTime="0.00" timeLoss="10.84" speed="11.75" speedRelative="0.85" departed="3" arrived="1" entered="4" left="6" laneChangedFrom="0" laneChangedTo="0" flow="6.91"/>
        <edge id="30619424#0" sampledSeconds="387.53" traveltime="16.82" overlapTraveltime="17.68" density="0.55" overlapDensity="0.58" laneDensity="0.55" occupancy="0.28" waitingTime="15.00" timeLoss="89.29" speed="10.83" speedRelative="0.78" departed="2" arrived="2" entered="20" left="20" laneChangedFrom="0" laneChangedTo="0" flow="21.95"/>
        <edge id="30619424#1" sampledSeconds="945.64" traveltime="9.71" overlapTraveltime="10.64" density="2.41" overlapDensity="2.64" laneDensity="2.41" occupancy="1.22" waitingTime="6.00" timeLoss="231.74" speed="9.83" speedRelative="0.71" departed="3" arrived="0" entered="86" left="89" laneChangedFrom="0" laneChangedTo="0" flow="88.85"/>
        <edge id="30619634#0" sampledSeconds="449.99" traveltime="40.84" overlapTraveltime="41.59" density="0.40" overlapDensity="0.41" laneDensity="0.40" occupancy="0.20" waitingTime="0.00" timeLoss="38.40" speed="7.51" speedRelative="0.90" departed="11" arrived="0" entered="0" left="11" laneChangedFrom="0" laneChangedTo="0" flow="10.82"/>
        <edge id="30619634#2" sampledSeconds="57.43" traveltime="7.76" overlapTraveltime="8.50" density="0.26" overlapDensity="0.28" laneDensity="0.26" occupancy="0.13" waitingTime="0.00" timeLoss="7.97" speed="7.26" speedRelative="0.87" departed="3" arrived="0" entered="4" left="7" laneChangedFrom="0" laneChangedTo="0" flow="6.73"/>
        <edge id="30619634#4" sampledSeconds="29.23" traveltime="3.93" overlapTraveltime="5.01" density="0.24" overlapDensity="0.30" laneDensity="0.24" occupancy="0.13" waitingTime="0.00" timeLoss="5.75" speed="6.37" speedRelative="0.76" departed="1" arrived="0" entered="5" left="6" laneChangedFrom="0" laneChangedTo="0" flow="5.81"/>
        <edge id="30619634#5" sampledSeconds="42.24" traveltime="7.50" overlapTraveltime="9.10" density="0.19" overlapDensity="0.23" laneDensity="0.19" occupancy="0.10" waitingTime="0.00" timeLoss="7.53" speed="6.24" speedRelative="0.75" departed="4" arrived="0" entered="1" left="5" laneChangedFrom="0" laneChangedTo="0" flow="4.61"/>
        <edge id="30619634#6" sampledSeconds="32.02" traveltime="7.16" overlapTraveltime="8.59" density="0.14" overlapDensity="0.17" laneDensity="0.14" occupancy="0.08" waitingTime="0.00" timeLoss="5.71" speed="6.50" speedRelative="0.78" departed="3" arrived="0" entered="1" left="4" laneChangedFrom="0" laneChangedTo="0" flow="3.70"/>
        <edge id="30619634#7" sampledSeconds="96.82" traveltime="96.34" overlapTraveltime="96.96" density="0.04" overlapDensity="0.04" laneDensity="0.04" occupancy="0.02" waitingTime="0.00" timeLoss="7.75" speed="7.90" speedRelative="0.95" departed="0" arrived="1" entered="1" left="0" laneChangedFrom="0" laneChangedTo="0" flow="1.00"/>
        <edge id="30645384" sampledSeconds="785.92" traveltime="45.85" overlapTraveltime="46.63" density="0.37" overlapDensity="0.37" laneDensity="0.37" occupancy="0.19" waitingTime="0.00" timeLoss="51.65" speed="12.64" speedRelative="0.91" departed="17" arrived="0" entered="0" left="17" laneChangedFrom="0" laneChangedTo="0" flow="16.85"/>
        <edge id="30645392#0" sampledSeconds="65.72" traveltime="6.59" overlapTraveltime="6.97" density="0.20" overlapDensity="0.21" laneDensity="0.20" occupancy="0.10" waitingTime="0.00" timeLoss="3.14" speed="12.97" speedRelative="0.93" departed="10" arrived="0" entered="0" left="10" laneChangedFrom="0" laneChangedTo="0" flow="9.40"/>
        <edge id="30645392#1" sampledSeconds="84.36" traveltime="2.84" overlapTraveltime="3.52" density="0.91" overlapDensity="1.12" laneDensity="0.91" occupancy="0.46" waitingTime="0.00" timeLoss="36.96" speed="7.37" speedRelative="0.53" departed="0" arrived="1" entered="24" left="23" laneChangedFrom="0" laneChangedTo="0" flow="24.00"/>
        <edge id="318042913" sampledSeconds="1626.93" traveltime="50.68" overlapTraveltime="50.87" density="0.35" overlapDensity="0.35" laneDensity="0.12" occupancy="0.06" waitingTime="0.00" timeLoss="128.53" speed="25.66" speedRelative="0.92" departed="0" arrived="32" entered="32" left="0" laneChangedFrom="29" laneChangedTo="29" flow="32.00"/>
        <edge id="327743346" sampledSeconds="314.05" traveltime="8.80" overlapTraveltime="8.99" density="0.37" overlapDensity="0.38" laneDensity="0.12" occupancy="0.06" waitingTime="0.00" timeLoss="15.03" speed="26.10" speedRelative="0.94" departed="0" arrived="35" entered="35" left="0" laneChangedFrom="0" laneChangedTo="0" flow="35.00"/>
        <edge id="327793028" sampledSeconds="17.89" traveltime="8.60" overlapTraveltime="9.03" density="0.05" overlapDensity="0.05" laneDensity="0.05" occupancy="0.02" waitingTime="0.00" timeLoss="1.03" speed="11.88" speedRelative="0.86" departed="0" arrived="2" entered="2" left="0" laneChangedFrom="0" laneChangedTo="0" flow="2.00"/>
        <edge id="328748320#0" sampledSeconds="1619.27" traveltime="50.25" overlapTraveltime="50.80" density="0.34" overlapDensity="0.34" laneDensity="0.11" occupancy="0.06" waitingTime="6.00" timeLoss="80.13" speed="26.22" speedRelative="0.94" departed="32" arrived="0" entered="0" left="32" laneChangedFrom="2" laneChangedTo="2" flow="31.88"/>
        <edge id="328833896#0" sampledSeconds="29.58" traveltime="5.92" overlapTraveltime="6.31" density="0.10" overlapDensity="0.11" laneDensity="0.10" occupancy="0.05" waitingTime="0.00" timeLoss="1.38" speed="12.99" speedRelative="0.94" departed="5" arrived="0" entered="0" left="5" laneChangedFrom="0" laneChangedTo="0" flow="4.67"/>
        <edge id="328833896#1" sampledSeconds="122.93" traveltime="6.88" overlapTraveltime="7.26" density="0.39" overlapDensity="0.42" laneDensity="0.39" occupancy="0.19" waitingTime="0.00" timeLoss="16.47" speed="11.99" speedRelative="0.86" departed="1" arrived="2" entered="16" left="15" laneChangedFrom="0" laneChangedTo="0" flow="16.94"/>
        <edge id="328833896#2" sampledSeconds="376.76" traveltime="7.03" overlapTraveltime="8.32" density="1.17" overlapDensity="1.38" laneDensity="1.17" occupancy="0.62" waitingTime="0.00" timeLoss="109.51" speed="9.71" speedRelative="0.70" departed="3" arrived="2" entered="43" left="43" laneChangedFrom="0" laneChangedTo="0" flow="45.39"/>
        <edge id="328840073" sampledSeconds="904.61" traveltime="63.55" overlapTraveltime="64.19" density="0.19" overlapDensity="0.19" laneDensity="0.19" occupancy="0.10" waitingTime="0.00" timeLoss="60.27" speed="20.33" speedRelative="0.91" departed="12" arrived="3" entered="3" left="11" laneChangedFrom="0" laneChangedTo="0" flow="14.09"/>